 TITLE= "tecplot results" 
  VARIABLES = "X"  "Y"  "Z" "U"  "V" "W" "pres" "dens" "mass"  "visc"  
 ZONE 
     STRANDID=1, SOLUTIONTIME= 6     
I=   1800 , J=1, K=1, F=POINT 
      0.005      0.000      0.005      0.001      0.000     -0.003   3222.041   1003.222      0.100      0.000
      0.005      0.000      0.015      0.001      0.000     -0.005   3096.697   1003.097      0.100      0.000
      0.005      0.000      0.025      0.001      0.000     -0.008   3069.434   1003.069      0.100      0.000
      0.005      0.000      0.035      0.001      0.000     -0.011   2963.635   1002.964      0.100      0.000
      0.005      0.000      0.045      0.001      0.000     -0.014   2859.578   1002.860      0.100      0.000
      0.005      0.000      0.054      0.001      0.000     -0.017   2759.713   1002.760      0.100      0.000
      0.005      0.000      0.064      0.001      0.000     -0.020   2654.401   1002.654      0.100      0.000
      0.005      0.000      0.074      0.001      0.000     -0.023   2550.518   1002.551      0.100      0.000
      0.005      0.000      0.084      0.001      0.000     -0.026   2443.953   1002.444      0.100      0.000
      0.005      0.000      0.094      0.001      0.000     -0.029   2337.142   1002.337      0.100      0.000
      0.005      0.000      0.104      0.001      0.000     -0.031   2229.580   1002.230      0.100      0.000
      0.005      0.000      0.114      0.000      0.000     -0.034   2121.413   1002.121      0.100      0.000
      0.005      0.000      0.124      0.000      0.000     -0.036   2012.425   1002.012      0.100      0.000
      0.005      0.000      0.134      0.000      0.000     -0.039   1902.177   1001.902      0.100      0.000
      0.005      0.000      0.144      0.000      0.000     -0.041   1790.518   1001.791      0.100      0.000
      0.005      0.000      0.154      0.000      0.000     -0.043   1676.874   1001.677      0.100      0.000
      0.005      0.000      0.164      0.000      0.000     -0.045   1561.542   1001.562      0.100      0.000
      0.005      0.000      0.174      0.000      0.000     -0.047   1444.691   1001.445      0.100      0.000
      0.005      0.000      0.184      0.000      0.000     -0.048   1326.964   1001.327      0.100      0.000
      0.005      0.000      0.194      0.000      0.000     -0.050   1208.999   1001.209      0.100      0.000
      0.005      0.000      0.204      0.000      0.000     -0.051   1091.410   1001.091      0.100      0.000
      0.005      0.000      0.213      0.000      0.000     -0.052    974.508   1000.975      0.100      0.000
      0.005      0.000      0.223      0.000      0.000     -0.054    858.427   1000.858      0.100      0.000
      0.005      0.000      0.233      0.000      0.000     -0.055    742.907   1000.743      0.100      0.000
      0.005      0.000      0.243      0.000      0.000     -0.056    627.975   1000.628      0.100      0.000
      0.005      0.000      0.253     -0.000      0.000     -0.057    512.938   1000.513      0.100      0.000
      0.005      0.000      0.263     -0.000      0.000     -0.057    399.003   1000.399      0.100      0.000
      0.005      0.000      0.273     -0.000      0.000     -0.058    282.917   1000.283      0.100      0.000
      0.005      0.000      0.283      0.000      0.000     -0.058    171.497   1000.171      0.100      0.000
      0.005      0.000      0.293      0.000      0.000     -0.059     65.487   1000.065      0.100      0.000
      0.015      0.000      0.005      0.004      0.000     -0.001   3205.252   1003.205      0.100      0.000
      0.015      0.000      0.015      0.003      0.000     -0.004   3254.695   1003.255      0.100      0.000
      0.015      0.000      0.025      0.003      0.000     -0.008   3241.508   1003.242      0.100      0.000
      0.015      0.000      0.035      0.003      0.000     -0.011   3100.465   1003.100      0.100      0.000
      0.015      0.000      0.045      0.003      0.000     -0.014   2987.298   1002.987      0.100      0.000
      0.015      0.000      0.054      0.003      0.000     -0.017   2891.636   1002.892      0.100      0.000
      0.015      0.000      0.064      0.003      0.000     -0.020   2772.290   1002.772      0.100      0.000
      0.015      0.000      0.074      0.003      0.000     -0.023   2667.022   1002.667      0.100      0.000
      0.015      0.000      0.084      0.003      0.000     -0.026   2551.819   1002.552      0.100      0.000
      0.015      0.000      0.094      0.003      0.000     -0.029   2440.065   1002.440      0.100      0.000
      0.015      0.000      0.104      0.003      0.000     -0.031   2326.047   1002.326      0.100      0.000
      0.015      0.000      0.114      0.002      0.000     -0.034   2211.818   1002.212      0.100      0.000
      0.015      0.000      0.124      0.002      0.000     -0.036   2097.034   1002.097      0.100      0.000
      0.015      0.000      0.134      0.002      0.000     -0.039   1980.607   1001.981      0.100      0.000
      0.015      0.000      0.144      0.002      0.000     -0.041   1863.278   1001.863      0.100      0.000
      0.015      0.000      0.154      0.002      0.000     -0.043   1743.683   1001.744      0.100      0.000
      0.015      0.000      0.164      0.002      0.000     -0.045   1622.815   1001.623      0.100      0.000
      0.015      0.000      0.174      0.002      0.000     -0.047   1500.369   1001.500      0.100      0.000
      0.015      0.000      0.184      0.002      0.000     -0.049   1377.359   1001.377      0.100      0.000
      0.015      0.000      0.193      0.002      0.000     -0.050   1254.211   1001.254      0.100      0.000
      0.015      0.000      0.203      0.002      0.000     -0.052   1131.674   1001.132      0.100      0.000
      0.015      0.000      0.213      0.002      0.000     -0.053   1009.936   1001.010      0.100      0.000
      0.015      0.000      0.223      0.002      0.000     -0.054    889.296   1000.889      0.100      0.000
      0.015      0.000      0.233      0.001      0.000     -0.055    769.002   1000.769      0.100      0.000
      0.015      0.000      0.243      0.001      0.000     -0.056    650.220   1000.650      0.100      0.000
      0.015      0.000      0.253      0.001      0.000     -0.057    529.716   1000.530      0.100      0.000
      0.015      0.000      0.263      0.001      0.000     -0.058    413.937   1000.414      0.100      0.000
      0.015      0.000      0.273      0.001      0.000     -0.059    290.799   1000.291      0.100      0.000
      0.015      0.000      0.283      0.001      0.000     -0.059    177.325   1000.177      0.100      0.000
      0.015      0.000      0.293      0.001      0.000     -0.060     71.368   1000.071      0.100      0.000
      0.025      0.000      0.005      0.006      0.000     -0.001   3271.538   1003.272      0.100      0.000
      0.025      0.000      0.015      0.005      0.000     -0.003   3361.605   1003.362      0.100      0.000
      0.025      0.000      0.025      0.004      0.000     -0.007   3351.823   1003.352      0.100      0.000
      0.025      0.000      0.035      0.004      0.000     -0.010   3203.068   1003.203      0.100      0.000
      0.025      0.000      0.045      0.004      0.000     -0.013   3092.186   1003.092      0.100      0.000
      0.025      0.000      0.055      0.004      0.000     -0.016   2994.369   1002.994      0.100      0.000
      0.025      0.000      0.064      0.004      0.000     -0.019   2869.691   1002.870      0.100      0.000
      0.025      0.000      0.074      0.004      0.000     -0.022   2764.493   1002.764      0.100      0.000
      0.025      0.000      0.084      0.004      0.000     -0.025   2645.379   1002.645      0.100      0.000
      0.025      0.000      0.094      0.004      0.000     -0.028   2532.052   1002.532      0.100      0.000
      0.025      0.000      0.104      0.004      0.000     -0.031   2415.076   1002.415      0.100      0.000
      0.025      0.000      0.114      0.004      0.000     -0.033   2298.161   1002.298      0.100      0.000
      0.025      0.000      0.124      0.004      0.000     -0.036   2180.492   1002.180      0.100      0.000
      0.025      0.000      0.134      0.004      0.000     -0.038   2060.899   1002.061      0.100      0.000
      0.025      0.000      0.144      0.003      0.000     -0.041   1940.560   1001.941      0.100      0.000
      0.025      0.000      0.154      0.003      0.000     -0.043   1817.732   1001.818      0.100      0.000
      0.025      0.000      0.164      0.003      0.000     -0.045   1693.787   1001.694      0.100      0.000
      0.025      0.000      0.174      0.003      0.000     -0.047   1568.043   1001.568      0.100      0.000
      0.025      0.000      0.184      0.003      0.000     -0.049   1441.707   1001.442      0.100      0.000
      0.025      0.000      0.194      0.003      0.000     -0.050   1314.868   1001.315      0.100      0.000
      0.025      0.000      0.203      0.002      0.000     -0.052   1188.339   1001.188      0.100      0.000
      0.025      0.000      0.213      0.002      0.000     -0.053   1062.113   1001.062      0.100      0.000
      0.025      0.000      0.223      0.002      0.000     -0.054    936.762   1000.937      0.100      0.000
      0.025      0.000      0.233      0.002      0.000     -0.055    811.324   1000.811      0.100      0.000
      0.025      0.000      0.243      0.001      0.000     -0.056    687.208   1000.687      0.100      0.000
      0.025      0.000      0.253      0.001      0.000     -0.057    561.137   1000.561      0.100      0.000
      0.025      0.000      0.263      0.001      0.000     -0.058    438.371   1000.438      0.100      0.000
      0.025      0.000      0.273      0.001      0.000     -0.059    310.981   1000.311      0.100      0.000
      0.025      0.000      0.283      0.001      0.000     -0.059    187.598   1000.188      0.100      0.000
      0.025      0.000      0.293      0.001      0.000     -0.060     72.222   1000.072      0.100      0.000
      0.035      0.000      0.005      0.007      0.000     -0.001   3234.334   1003.234      0.100      0.000
      0.035      0.000      0.015      0.007      0.000     -0.003   3293.611   1003.294      0.100      0.000
      0.035      0.000      0.025      0.007      0.000     -0.007   3277.686   1003.278      0.100      0.000
      0.035      0.000      0.035      0.007      0.000     -0.010   3129.296   1003.129      0.100      0.000
      0.035      0.000      0.045      0.007      0.000     -0.013   3020.359   1003.020      0.100      0.000
      0.035      0.000      0.055      0.006      0.000     -0.016   2919.994   1002.920      0.100      0.000
      0.035      0.000      0.064      0.006      0.000     -0.019   2796.406   1002.796      0.100      0.000
      0.035      0.000      0.074      0.006      0.000     -0.022   2691.294   1002.691      0.100      0.000
      0.035      0.000      0.084      0.006      0.000     -0.025   2571.950   1002.572      0.100      0.000
      0.035      0.000      0.094      0.006      0.000     -0.028   2459.406   1002.459      0.100      0.000
      0.035      0.000      0.104      0.006      0.000     -0.031   2342.687   1002.343      0.100      0.000
      0.035      0.000      0.114      0.006      0.000     -0.033   2226.554   1002.227      0.100      0.000
      0.035      0.000      0.124      0.006      0.000     -0.036   2109.701   1002.110      0.100      0.000
      0.035      0.000      0.134      0.005      0.000     -0.038   1991.190   1001.991      0.100      0.000
      0.035      0.000      0.144      0.005      0.000     -0.041   1872.146   1001.872      0.100      0.000
      0.035      0.000      0.154      0.005      0.000     -0.043   1750.922   1001.751      0.100      0.000
      0.035      0.000      0.164      0.005      0.000     -0.045   1628.969   1001.629      0.100      0.000
      0.035      0.000      0.174      0.005      0.000     -0.047   1505.491   1001.505      0.100      0.000
      0.035      0.000      0.184      0.004      0.000     -0.049   1381.816   1001.382      0.100      0.000
      0.035      0.000      0.193      0.004      0.000     -0.051   1257.823   1001.258      0.100      0.000
      0.035      0.000      0.203      0.004      0.000     -0.052   1134.596   1001.135      0.100      0.000
      0.035      0.000      0.213      0.004      0.000     -0.054   1011.827   1001.012      0.100      0.000
      0.035      0.000      0.223      0.003      0.000     -0.055    890.405   1000.890      0.100      0.000
      0.035      0.000      0.233      0.003      0.000     -0.056    769.124   1000.769      0.100      0.000
      0.035      0.000      0.243      0.003      0.000     -0.057    649.857   1000.650      0.100      0.000
      0.035      0.000      0.253      0.002      0.000     -0.058    529.110   1000.529      0.100      0.000
      0.035      0.000      0.263      0.002      0.000     -0.059    412.166   1000.412      0.100      0.000
      0.035      0.000      0.273      0.002      0.000     -0.060    291.078   1000.291      0.100      0.000
      0.035      0.000      0.283      0.002      0.000     -0.060    175.282   1000.175      0.100      0.000
      0.035      0.000      0.293      0.001      0.000     -0.061     72.466   1000.072      0.100      0.000
      0.045      0.000      0.005      0.010      0.000     -0.001   3202.304   1003.202      0.100      0.000
      0.045      0.000      0.015      0.009      0.000     -0.003   3258.524   1003.259      0.100      0.000
      0.045      0.000      0.025      0.009      0.000     -0.006   3246.348   1003.246      0.100      0.000
      0.045      0.000      0.035      0.009      0.000     -0.010   3100.217   1003.100      0.100      0.000
      0.045      0.000      0.045      0.009      0.000     -0.012   2991.144   1002.991      0.100      0.000
      0.045      0.000      0.055      0.009      0.000     -0.016   2892.127   1002.892      0.100      0.000
      0.045      0.000      0.064      0.009      0.000     -0.019   2770.512   1002.771      0.100      0.000
      0.045      0.000      0.074      0.009      0.000     -0.022   2666.575   1002.667      0.100      0.000
      0.045      0.000      0.084      0.009      0.000     -0.025   2549.192   1002.549      0.100      0.000
      0.045      0.000      0.094      0.009      0.000     -0.028   2438.590   1002.439      0.100      0.000
      0.045      0.000      0.104      0.009      0.000     -0.031   2323.811   1002.324      0.100      0.000
      0.045      0.000      0.114      0.008      0.000     -0.033   2209.798   1002.210      0.100      0.000
      0.045      0.000      0.124      0.008      0.000     -0.036   2095.068   1002.095      0.100      0.000
      0.045      0.000      0.134      0.008      0.000     -0.038   1978.794   1001.979      0.100      0.000
      0.045      0.000      0.144      0.008      0.000     -0.041   1862.039   1001.862      0.100      0.000
      0.045      0.000      0.154      0.007      0.000     -0.043   1743.199   1001.743      0.100      0.000
      0.045      0.000      0.164      0.007      0.000     -0.045   1623.725   1001.624      0.100      0.000
      0.045      0.000      0.174      0.006      0.000     -0.047   1502.694   1001.503      0.100      0.000
      0.045      0.000      0.184      0.006      0.000     -0.049   1381.535   1001.382      0.100      0.000
      0.045      0.000      0.193      0.006      0.000     -0.051   1259.875   1001.260      0.100      0.000
      0.045      0.000      0.203      0.005      0.000     -0.052   1138.896   1001.139      0.100      0.000
      0.045      0.000      0.213      0.005      0.000     -0.054   1017.932   1001.018      0.100      0.000
      0.045      0.000      0.223      0.004      0.000     -0.055    898.212   1000.898      0.100      0.000
      0.045      0.000      0.233      0.004      0.000     -0.056    777.866   1000.778      0.100      0.000
      0.045      0.000      0.243      0.003      0.000     -0.058    659.407   1000.659      0.100      0.000
      0.045      0.000      0.253      0.003      0.000     -0.058    538.538   1000.539      0.100      0.000
      0.045      0.000      0.263      0.002      0.000     -0.059    420.957   1000.421      0.100      0.000
      0.045      0.000      0.273      0.002      0.000     -0.060    298.570   1000.299      0.100      0.000
      0.045      0.000      0.283      0.002      0.000     -0.060    179.728   1000.180      0.100      0.000
      0.045      0.000      0.293      0.002      0.000     -0.061     70.383   1000.070      0.100      0.000
      0.055      0.000      0.005      0.012      0.000     -0.001   3164.683   1003.165      0.100      0.000
      0.055      0.000      0.015      0.012      0.000     -0.003   3227.581   1003.228      0.100      0.000
      0.055      0.000      0.025      0.012      0.000     -0.006   3214.805   1003.215      0.100      0.000
      0.055      0.000      0.035      0.012      0.000     -0.009   3065.980   1003.066      0.100      0.000
      0.055      0.000      0.045      0.012      0.000     -0.012   2956.940   1002.957      0.100      0.000
      0.055      0.000      0.055      0.012      0.000     -0.016   2857.512   1002.858      0.100      0.000
      0.055      0.000      0.064      0.012      0.000     -0.019   2735.428   1002.735      0.100      0.000
      0.055      0.000      0.074      0.012      0.000     -0.022   2631.481   1002.631      0.100      0.000
      0.055      0.000      0.084      0.011      0.000     -0.025   2514.110   1002.514      0.100      0.000
      0.055      0.000      0.094      0.011      0.000     -0.028   2403.610   1002.404      0.100      0.000
      0.055      0.000      0.104      0.011      0.000     -0.031   2288.975   1002.289      0.100      0.000
      0.055      0.000      0.114      0.011      0.000     -0.033   2175.121   1002.175      0.100      0.000
      0.055      0.000      0.124      0.010      0.000     -0.036   2060.601   1002.061      0.100      0.000
      0.055      0.000      0.134      0.010      0.000     -0.039   1944.610   1001.945      0.100      0.000
      0.055      0.000      0.144      0.010      0.000     -0.041   1828.262   1001.828      0.100      0.000
      0.055      0.000      0.154      0.009      0.000     -0.043   1710.001   1001.710      0.100      0.000
      0.055      0.000      0.164      0.009      0.000     -0.046   1591.311   1001.591      0.100      0.000
      0.055      0.000      0.174      0.008      0.000     -0.048   1471.191   1001.471      0.100      0.000
      0.055      0.000      0.184      0.008      0.000     -0.050   1351.112   1001.351      0.100      0.000
      0.055      0.000      0.193      0.007      0.000     -0.051   1230.556   1001.231      0.100      0.000
      0.055      0.000      0.203      0.007      0.000     -0.053   1110.852   1001.111      0.100      0.000
      0.055      0.000      0.213      0.006      0.000     -0.054    991.128   1000.991      0.100      0.000
      0.055      0.000      0.223      0.005      0.000     -0.056    872.969   1000.873      0.100      0.000
      0.055      0.000      0.233      0.005      0.000     -0.057    754.245   1000.754      0.100      0.000
      0.055      0.000      0.243      0.004      0.000     -0.058    637.818   1000.638      0.100      0.000
      0.055      0.000      0.253      0.004      0.000     -0.059    519.435   1000.519      0.100      0.000
      0.055      0.000      0.263      0.003      0.000     -0.060    405.098   1000.405      0.100      0.000
      0.055      0.000      0.273      0.003      0.000     -0.061    285.800   1000.286      0.100      0.000
      0.055      0.000      0.283      0.003      0.000     -0.061    172.950   1000.173      0.100      0.000
      0.055      0.000      0.293      0.002      0.000     -0.062     69.454   1000.069      0.100      0.000
      0.066      0.000      0.005      0.015      0.000     -0.001   3111.953   1003.112      0.100      0.000
      0.066      0.000      0.015      0.015      0.000     -0.003   3163.201   1003.163      0.100      0.000
      0.066      0.000      0.025      0.015      0.000     -0.006   3146.231   1003.146      0.100      0.000
      0.066      0.000      0.035      0.015      0.000     -0.009   2998.598   1002.999      0.100      0.000
      0.066      0.000      0.045      0.015      0.000     -0.012   2890.819   1002.891      0.100      0.000
      0.066      0.000      0.055      0.015      0.000     -0.016   2791.602   1002.792      0.100      0.000
      0.066      0.000      0.064      0.015      0.000     -0.019   2671.091   1002.671      0.100      0.000
      0.066      0.000      0.074      0.015      0.000     -0.022   2568.690   1002.569      0.100      0.000
      0.066      0.000      0.084      0.015      0.000     -0.025   2453.027   1002.453      0.100      0.000
      0.066      0.000      0.094      0.015      0.000     -0.028   2344.594   1002.345      0.100      0.000
      0.065      0.000      0.104      0.014      0.000     -0.031   2232.170   1002.232      0.100      0.000
      0.065      0.000      0.114      0.014      0.000     -0.034   2120.764   1002.121      0.100      0.000
      0.065      0.000      0.124      0.013      0.000     -0.036   2008.847   1002.009      0.100      0.000
      0.065      0.000      0.134      0.013      0.000     -0.039   1895.696   1001.896      0.100      0.000
      0.065      0.000      0.144      0.012      0.000     -0.041   1782.421   1001.782      0.100      0.000
      0.065      0.000      0.154      0.012      0.000     -0.044   1667.465   1001.667      0.100      0.000
      0.065      0.000      0.164      0.011      0.000     -0.046   1552.323   1001.552      0.100      0.000
      0.065      0.000      0.174      0.011      0.000     -0.048   1435.945   1001.436      0.100      0.000
      0.065      0.000      0.184      0.010      0.000     -0.050   1319.778   1001.320      0.100      0.000
      0.065      0.000      0.193      0.009      0.000     -0.052   1203.187   1001.203      0.100      0.000
      0.065      0.000      0.203      0.009      0.000     -0.054   1087.491   1001.087      0.100      0.000
      0.065      0.000      0.213      0.008      0.000     -0.055    971.647   1000.972      0.100      0.000
      0.065      0.000      0.223      0.007      0.000     -0.056    857.314   1000.857      0.100      0.000
      0.065      0.000      0.233      0.006      0.000     -0.058    742.232   1000.742      0.100      0.000
      0.065      0.000      0.243      0.005      0.000     -0.059    629.232   1000.629      0.100      0.000
      0.065      0.000      0.253      0.005      0.000     -0.060    513.610   1000.514      0.100      0.000
      0.065      0.000      0.263      0.004      0.000     -0.061    402.036   1000.402      0.100      0.000
      0.065      0.000      0.273      0.003      0.000     -0.061    284.445   1000.284      0.100      0.000
      0.065      0.000      0.283      0.003      0.000     -0.062    172.206   1000.172      0.100      0.000
      0.065      0.000      0.293      0.003      0.000     -0.063     67.332   1000.067      0.100      0.000
      0.076      0.000      0.005      0.018      0.000     -0.001   3049.780   1003.050      0.100      0.000
      0.076      0.000      0.015      0.019      0.000     -0.003   3101.505   1003.102      0.100      0.000
      0.076      0.000      0.025      0.019      0.000     -0.006   3085.808   1003.086      0.100      0.000
      0.076      0.000      0.035      0.019      0.000     -0.009   2939.166   1002.939      0.100      0.000
      0.076      0.000      0.045      0.019      0.000     -0.012   2832.076   1002.832      0.100      0.000
      0.076      0.000      0.055      0.019      0.000     -0.016   2733.624   1002.734      0.100      0.000
      0.076      0.000      0.064      0.019      0.000     -0.019   2614.618   1002.615      0.100      0.000
      0.076      0.000      0.074      0.019      0.000     -0.022   2513.529   1002.514      0.100      0.000
      0.076      0.000      0.084      0.018      0.000     -0.025   2399.527   1002.400      0.100      0.000
      0.076      0.000      0.094      0.018      0.000     -0.028   2292.842   1002.293      0.100      0.000
      0.076      0.000      0.104      0.017      0.000     -0.031   2182.280   1002.182      0.100      0.000
      0.076      0.000      0.114      0.017      0.000     -0.034   2072.833   1002.073      0.100      0.000
      0.076      0.000      0.124      0.016      0.000     -0.037   1962.866   1001.963      0.100      0.000
      0.076      0.000      0.134      0.016      0.000     -0.039   1851.794   1001.852      0.100      0.000
      0.075      0.000      0.144      0.015      0.000     -0.042   1740.664   1001.741      0.100      0.000
      0.075      0.000      0.154      0.014      0.000     -0.044   1627.922   1001.628      0.100      0.000
      0.075      0.000      0.164      0.014      0.000     -0.047   1515.092   1001.515      0.100      0.000
      0.075      0.000      0.174      0.013      0.000     -0.049   1401.096   1001.401      0.100      0.000
      0.075      0.000      0.183      0.012      0.000     -0.051   1287.345   1001.287      0.100      0.000
      0.075      0.000      0.193      0.011      0.000     -0.053   1173.157   1001.173      0.100      0.000
      0.075      0.000      0.203      0.010      0.000     -0.054   1059.854   1001.060      0.100      0.000
      0.075      0.000      0.213      0.009      0.000     -0.056    946.323   1000.946      0.100      0.000
      0.075      0.000      0.223      0.008      0.000     -0.057    834.279   1000.834      0.100      0.000
      0.075      0.000      0.233      0.008      0.000     -0.059    721.417   1000.721      0.100      0.000
      0.075      0.000      0.243      0.007      0.000     -0.060    610.865   1000.611      0.100      0.000
      0.075      0.000      0.253      0.006      0.000     -0.061    497.652   1000.498      0.100      0.000
      0.075      0.000      0.263      0.005      0.000     -0.062    388.831   1000.389      0.100      0.000
      0.075      0.000      0.273      0.004      0.000     -0.062    274.212   1000.274      0.100      0.000
      0.075      0.000      0.283      0.004      0.000     -0.063    166.429   1000.166      0.100      0.000
      0.075      0.000      0.293      0.003      0.000     -0.064     65.365   1000.065      0.100      0.000
      0.086      0.000      0.005      0.022      0.000     -0.001   2972.643   1002.973      0.100      0.000
      0.086      0.000      0.015      0.023      0.000     -0.002   3017.238   1003.017      0.100      0.000
      0.086      0.000      0.025      0.023      0.000     -0.006   2998.390   1002.998      0.100      0.000
      0.086      0.000      0.035      0.023      0.000     -0.009   2852.087   1002.852      0.100      0.000
      0.086      0.000      0.045      0.024      0.000     -0.012   2746.418   1002.746      0.100      0.000
      0.086      0.000      0.055      0.023      0.000     -0.016   2648.867   1002.649      0.100      0.000
      0.086      0.000      0.064      0.023      0.000     -0.019   2531.625   1002.532      0.100      0.000
      0.086      0.000      0.074      0.023      0.000     -0.022   2432.396   1002.432      0.100      0.000
      0.086      0.000      0.084      0.023      0.000     -0.025   2320.655   1002.321      0.100      0.000
      0.086      0.000      0.094      0.022      0.000     -0.029   2216.417   1002.216      0.100      0.000
      0.086      0.000      0.104      0.021      0.000     -0.032   2108.504   1002.109      0.100      0.000
      0.086      0.000      0.114      0.021      0.000     -0.035   2001.923   1002.002      0.100      0.000
      0.086      0.000      0.124      0.020      0.000     -0.037   1894.962   1001.895      0.100      0.000
      0.086      0.000      0.134      0.019      0.000     -0.040   1787.174   1001.787      0.100      0.000
      0.086      0.000      0.144      0.019      0.000     -0.043   1679.545   1001.680      0.100      0.000
      0.086      0.000      0.154      0.018      0.000     -0.045   1570.554   1001.571      0.100      0.000
      0.085      0.000      0.164      0.017      0.000     -0.047   1461.720   1001.462      0.100      0.000
      0.085      0.000      0.174      0.016      0.000     -0.050   1351.932   1001.352      0.100      0.000
      0.085      0.000      0.183      0.015      0.000     -0.052   1242.547   1001.243      0.100      0.000
      0.085      0.000      0.193      0.014      0.000     -0.054   1132.820   1001.133      0.100      0.000
      0.085      0.000      0.203      0.013      0.000     -0.055   1024.052   1001.024      0.100      0.000
      0.085      0.000      0.213      0.011      0.000     -0.057    915.069   1000.915      0.100      0.000
      0.085      0.000      0.223      0.010      0.000     -0.058    807.584   1000.808      0.100      0.000
      0.085      0.000      0.233      0.009      0.000     -0.060    699.163   1000.699      0.100      0.000
      0.085      0.000      0.243      0.008      0.000     -0.061    592.993   1000.593      0.100      0.000
      0.085      0.000      0.253      0.007      0.000     -0.062    483.910   1000.484      0.100      0.000
      0.085      0.000      0.263      0.006      0.000     -0.063    379.114   1000.379      0.100      0.000
      0.085      0.000      0.273      0.005      0.000     -0.063    267.683   1000.268      0.100      0.000