 TITLE= "tecplot results" 
  VARIABLES = "X"  "Y"  "Z" "U"  "V" "W" "pres" "dens" "mass"  "visc"  
 ZONE 
     STRANDID=1, SOLUTIONTIME= 90    
I=   1800 , J=1, K=1, F=POINT 
      0.051      0.000      0.002      0.092      0.000     -0.000    787.680   1000.788      0.100      0.000
      0.034      0.000      0.003      0.061      0.000     -0.007   1205.453   1001.205      0.100      0.000
      0.018      0.000      0.004      0.032      0.000     -0.002   1365.038   1001.365      0.100      0.000
      0.025      0.000      0.010      0.049      0.000     -0.008   1259.956   1001.260      0.100      0.000
      0.007      0.000      0.007      0.004      0.000     -0.018   1936.869   1001.937      0.100      0.000
      0.013      0.000      0.014      0.050      0.000     -0.023    347.875   1000.348      0.100      0.000
      0.007      0.000      0.018     -0.018      0.000     -0.045   1275.194   1001.275      0.100      0.000
      0.014      0.000      0.023      0.031      0.000     -0.045    194.038   1000.194      0.100      0.000
      0.007      0.000      0.028     -0.008      0.000     -0.057   1313.703   1001.314      0.100      0.000
      0.011      0.000      0.034      0.032      0.000     -0.070    255.282   1000.255      0.100      0.000
      0.007      0.000      0.040     -0.011      0.000     -0.078   1293.015   1001.293      0.100      0.000
      0.012      0.000      0.045      0.027      0.000     -0.080     78.856   1000.079      0.100      0.000
      0.007      0.000      0.051     -0.013      0.000     -0.091   1191.666   1001.192      0.100      0.000
      0.013      0.000      0.056      0.025      0.000     -0.100    -48.249    999.952      0.100      0.000
      0.008      0.000      0.061     -0.039      0.000     -0.095   1124.763   1001.125      0.100      0.000
      0.014      0.000      0.065      0.029      0.000     -0.117    130.610   1000.131      0.100      0.000
      0.012      0.000      0.070     -0.021      0.000     -0.114    653.188   1000.653      0.100      0.000
      0.014      0.000      0.075      0.019      0.000     -0.114    323.188   1000.323      0.100      0.000
      0.013      0.000      0.080      0.005      0.000     -0.111    423.935   1000.424      0.100      0.000
      0.013      0.000      0.084      0.008      0.000     -0.111    272.860   1000.273      0.100      0.000
      0.013      0.000      0.089      0.006      0.000     -0.114    323.577   1000.324      0.100      0.000
      0.012      0.000      0.093      0.008      0.000     -0.114    312.561   1000.313      0.100      0.000
      0.012      0.000      0.098      0.010      0.000     -0.115    234.115   1000.234      0.100      0.000
      0.012      0.000      0.103      0.008      0.000     -0.118    167.796   1000.168      0.100      0.000
      0.011      0.000      0.107      0.005      0.000     -0.120    189.735   1000.190      0.100      0.000
      0.010      0.000      0.112      0.007      0.000     -0.118    230.967   1000.231      0.100      0.000
      0.011      0.000      0.118      0.010      0.000     -0.119    103.601   1000.104      0.100      0.000
      0.010      0.000      0.123      0.006      0.000     -0.126     19.069   1000.019      0.100      0.000
      0.007      0.000      0.127      0.004      0.000     -0.130     62.949   1000.063      0.100      0.000
      0.008      0.000      0.130      0.004      0.000     -0.131     13.557   1000.014      0.100      0.000
      0.067      0.000      0.003      0.113      0.000     -0.002   1228.838   1001.229      0.100      0.000
      0.042      0.000      0.010      0.078      0.000     -0.013   1456.479   1001.456      0.100      0.000
      0.059      0.000      0.010      0.100      0.000     -0.009   1516.677   1001.517      0.100      0.000
      0.050      0.000      0.015      0.092      0.000     -0.018   1228.997   1001.229      0.100      0.000
      0.033      0.000      0.015      0.078      0.000     -0.016   1087.756   1001.088      0.100      0.000
      0.042      0.000      0.020      0.076      0.000     -0.022   1144.330   1001.144      0.100      0.000
      0.024      0.000      0.020      0.031      0.000     -0.039   1543.683   1001.544      0.100      0.000
      0.036      0.000      0.027      0.039      0.000     -0.039    898.293   1000.898      0.100      0.000
      0.024      0.000      0.029      0.035      0.000     -0.047   1042.642   1001.043      0.100      0.000
      0.036      0.000      0.034      0.053      0.000     -0.043    817.630   1000.818      0.100      0.000
      0.023      0.000      0.037      0.019      0.000     -0.059   1174.142   1001.174      0.100      0.000
      0.034      0.000      0.042      0.039      0.000     -0.057    731.275   1000.731      0.100      0.000
      0.023      0.000      0.046      0.020      0.000     -0.067   1051.411   1001.051      0.100      0.000
      0.035      0.000      0.050      0.040      0.000     -0.064    704.441   1000.704      0.100      0.000
      0.024      0.000      0.054      0.019      0.000     -0.078    909.791   1000.910      0.100      0.000
      0.036      0.000      0.058      0.035      0.000     -0.078    496.785   1000.497      0.100      0.000
      0.026      0.000      0.063      0.010      0.000     -0.081    859.265   1000.859      0.100      0.000
      0.037      0.000      0.067      0.041      0.000     -0.088    698.719   1000.699      0.100      0.000
      0.028      0.000      0.072     -0.015      0.000     -0.092    351.803   1000.352      0.100      0.000
      0.036      0.000      0.076      0.053      0.000     -0.111    442.825   1000.443      0.100      0.000
      0.032      0.000      0.081     -0.012      0.000     -0.121    648.268   1000.648      0.100      0.000
      0.033      0.000      0.087      0.033      0.000     -0.113    258.029   1000.258      0.100      0.000
      0.031      0.000      0.092      0.007      0.000     -0.120    402.530   1000.403      0.100      0.000
      0.032      0.000      0.098      0.029      0.000     -0.120    318.531   1000.319      0.100      0.000
      0.029      0.000      0.103      0.005      0.000     -0.126    234.825   1000.235      0.100      0.000
      0.031      0.000      0.108      0.036      0.000     -0.125    144.464   1000.144      0.100      0.000
      0.027      0.000      0.114      0.008      0.000     -0.134    309.335   1000.309      0.100      0.000
      0.029      0.000      0.121      0.024      0.000     -0.134      3.110   1000.003      0.100      0.000
      0.027      0.000      0.124      0.017      0.000     -0.140     30.087   1000.030      0.100      0.000
      0.027      0.000      0.128      0.020      0.000     -0.140     36.363   1000.036      0.100      0.000
      0.086      0.000      0.003      0.134      0.000     -0.001   1272.971   1001.273      0.100      0.000
      0.075      0.000      0.009      0.124      0.000     -0.007   1418.852   1001.419      0.100      0.000
      0.096      0.000      0.009      0.154      0.000     -0.014   1680.399   1001.680      0.100      0.000
      0.084      0.000      0.014      0.143      0.000     -0.016   1320.148   1001.320      0.100      0.000
      0.067      0.000      0.016      0.113      0.000     -0.020   1290.228   1001.290      0.100      0.000
      0.076      0.000      0.020      0.124      0.000     -0.026    963.449   1000.963      0.100      0.000
      0.057      0.000      0.023      0.102      0.000     -0.023   1073.746   1001.074      0.100      0.000
      0.067      0.000      0.026      0.110      0.000     -0.029    992.113   1000.992      0.100      0.000
      0.050      0.000      0.029      0.067      0.000     -0.045   1046.193   1001.046      0.100      0.000
      0.061      0.000      0.033      0.070      0.000     -0.044    960.863   1000.961      0.100      0.000
      0.048      0.000      0.037      0.057      0.000     -0.053    971.587   1000.972      0.100      0.000
      0.060      0.000      0.041      0.065      0.000     -0.049    779.300   1000.779      0.100      0.000
      0.047      0.000      0.045      0.046      0.000     -0.060    968.298   1000.968      0.100      0.000
      0.059      0.000      0.049      0.060      0.000     -0.059    733.026   1000.733      0.100      0.000
      0.048      0.000      0.053      0.051      0.000     -0.065    873.925   1000.874      0.100      0.000
      0.060      0.000      0.057      0.060      0.000     -0.067    638.476   1000.638      0.100      0.000
      0.048      0.000      0.062      0.044      0.000     -0.076    777.462   1000.777      0.100      0.000
      0.060      0.000      0.066      0.065      0.000     -0.075    569.721   1000.570      0.100      0.000
      0.049      0.000      0.070      0.025      0.000     -0.079    650.329   1000.650      0.100      0.000
      0.058      0.000      0.075      0.078      0.000     -0.088    352.357   1000.352      0.100      0.000
      0.051      0.000      0.080      0.006      0.000     -0.105    600.058   1000.600      0.100      0.000
      0.054      0.000      0.085      0.076      0.000     -0.106    342.393   1000.342      0.100      0.000
      0.050      0.000      0.090      0.005      0.000     -0.125    391.696   1000.392      0.100      0.000
      0.052      0.000      0.096      0.055      0.000     -0.127    277.027   1000.277      0.100      0.000
      0.049      0.000      0.101      0.022      0.000     -0.138    294.432   1000.294      0.100      0.000
      0.049      0.000      0.106      0.036      0.000     -0.133    171.457   1000.171      0.100      0.000
      0.047      0.000      0.112      0.028      0.000     -0.136    291.245   1000.291      0.100      0.000
      0.047      0.000      0.119      0.031      0.000     -0.138     30.643   1000.031      0.100      0.000
      0.045      0.000      0.123      0.025      0.000     -0.141     52.443   1000.052      0.100      0.000
      0.046      0.000      0.127      0.028      0.000     -0.142     34.600   1000.035      0.100      0.000
      0.126      0.000      0.003      0.190      0.000     -0.001   1309.023   1001.309      0.100      0.000
      0.106      0.000      0.005      0.165      0.000     -0.002   1543.579   1001.544      0.100      0.000
      0.117      0.000      0.009      0.181      0.000     -0.009   1601.311   1001.601      0.100      0.000
      0.110      0.000      0.016      0.154      0.000     -0.019   1274.982   1001.275      0.100      0.000
      0.097      0.000      0.018      0.144      0.000     -0.012   1114.852   1001.115      0.100      0.000
      0.104      0.000      0.023      0.152      0.000     -0.019   1005.144   1001.005      0.100      0.000
      0.087      0.000      0.023      0.133      0.000     -0.021   1072.418   1001.072      0.100      0.000
      0.096      0.000      0.029      0.139      0.000     -0.027   1115.146   1001.115      0.100      0.000
      0.079      0.000      0.030      0.116      0.000     -0.033   1084.088   1001.084      0.100      0.000
      0.089      0.000      0.035      0.116      0.000     -0.038    996.829   1000.997      0.100      0.000
      0.073      0.000      0.037      0.082      0.000     -0.052    999.635   1001.000      0.100      0.000
      0.085      0.000      0.042      0.088      0.000     -0.049    785.525   1000.786      0.100      0.000
      0.072      0.000      0.044      0.076      0.000     -0.056    814.595   1000.815      0.100      0.000
      0.084      0.000      0.050      0.087      0.000     -0.059    800.527   1000.801      0.100      0.000
      0.071      0.000      0.052      0.074      0.000     -0.068    834.386   1000.834      0.100      0.000
      0.084      0.000      0.058      0.084      0.000     -0.067    704.938   1000.705      0.100      0.000
      0.071      0.000      0.061      0.069      0.000     -0.077    742.401   1000.742      0.100      0.000
      0.082      0.000      0.066      0.086      0.000     -0.074    562.003   1000.562      0.100      0.000
      0.071      0.000      0.070      0.055      0.000     -0.086    705.821   1000.706      0.100      0.000
      0.080      0.000      0.075      0.098      0.000     -0.083    320.930   1000.321      0.100      0.000
      0.071      0.000      0.079      0.037      0.000     -0.101    810.571   1000.811      0.100      0.000
      0.076      0.000      0.085      0.106      0.000     -0.103     17.351   1000.017      0.100      0.000
      0.070      0.000      0.089      0.041      0.000     -0.129    597.321   1000.597      0.100      0.000
      0.071      0.000      0.095      0.083      0.000     -0.121    298.691   1000.299      0.100      0.000
      0.069      0.000      0.100      0.055      0.000     -0.131    251.198   1000.251      0.100      0.000
      0.067      0.000      0.105      0.040      0.000     -0.136    168.205   1000.168      0.100      0.000
      0.067      0.000      0.111      0.042      0.000     -0.137    323.920   1000.324      0.100      0.000
      0.065      0.000      0.118      0.036      0.000     -0.139     21.857   1000.022      0.100      0.000
      0.066      0.000      0.121      0.040      0.000     -0.143     30.846   1000.031      0.100      0.000
      0.065      0.000      0.126      0.037      0.000     -0.144     40.776   1000.041      0.100      0.000
      0.157      0.000      0.003      0.241      0.000     -0.001   1260.879   1001.261      0.100      0.000
      0.141      0.000      0.006      0.211      0.000     -0.006   1695.183   1001.695      0.100      0.000
      0.131      0.000      0.011      0.208      0.000     -0.010   1449.246   1001.449      0.100      0.000
      0.142      0.000      0.015      0.212      0.000     -0.009   1287.392   1001.287      0.100      0.000
      0.124      0.000      0.018      0.170      0.000     -0.030   1119.407   1001.119      0.100      0.000
      0.135      0.000      0.022      0.180      0.000     -0.025   1065.929   1001.066      0.100      0.000
      0.116      0.000      0.024      0.163      0.000     -0.029    941.753   1000.942      0.100      0.000
      0.127      0.000      0.028      0.174      0.000     -0.040   1093.493   1001.093      0.100      0.000
      0.110      0.000      0.031      0.155      0.000     -0.032   1116.598   1001.117      0.100      0.000
      0.120      0.000      0.035      0.168      0.000     -0.046   1019.592   1001.020      0.100      0.000
      0.102      0.000      0.038      0.135      0.000     -0.041    952.482   1000.952      0.100      0.000
      0.113      0.000      0.042      0.149      0.000     -0.053    879.815   1000.880      0.100      0.000
      0.098      0.000      0.045      0.107      0.000     -0.057    761.507   1000.762      0.100      0.000
      0.110      0.000      0.050      0.129      0.000     -0.067    763.546   1000.764      0.100      0.000
      0.097      0.000      0.052      0.106      0.000     -0.070    713.765   1000.714      0.100      0.000
      0.108      0.000      0.058      0.122      0.000     -0.079    824.556   1000.825      0.100      0.000
      0.095      0.000      0.060      0.098      0.000     -0.084    681.757   1000.682      0.100      0.000
      0.105      0.000      0.066      0.114      0.000     -0.087    601.836   1000.602      0.100      0.000
      0.093      0.000      0.069      0.086      0.000     -0.099    674.782   1000.675      0.100      0.000
      0.101      0.000      0.075      0.124      0.000     -0.095    346.829   1000.347      0.100      0.000
      0.091      0.000      0.079      0.067      0.000     -0.112    965.570   1000.966      0.100      0.000
      0.096      0.000      0.085      0.132      0.000     -0.111   -164.284    999.836      0.100      0.000
      0.091      0.000      0.089      0.076      0.000     -0.135    788.649   1000.789      0.100      0.000
      0.091      0.000      0.095      0.098      0.000     -0.121    223.661   1000.224      0.100      0.000
      0.088      0.000      0.100      0.070      0.000     -0.137    240.179   1000.240      0.100      0.000
      0.087      0.000      0.105      0.063      0.000     -0.134    242.870   1000.243      0.100      0.000
      0.086      0.000      0.111      0.051      0.000     -0.137    276.019   1000.276      0.100      0.000
      0.085      0.000      0.118      0.052      0.000     -0.139     39.502   1000.040      0.100      0.000
      0.084      0.000      0.121      0.048      0.000     -0.143     23.245   1000.023      0.100      0.000
      0.085      0.000      0.125      0.050      0.000     -0.144     41.679   1000.042      0.100      0.000
      0.178      0.000      0.003      0.255      0.000     -0.000   1274.286   1001.274      0.100      0.000
      0.168      0.000      0.008      0.248      0.000     -0.004   1511.263   1001.511      0.100      0.000
      0.152      0.000      0.011      0.214      0.000     -0.014   1351.368   1001.351      0.100      0.000
      0.181      0.000      0.013      0.273      0.000     -0.008   1562.121   1001.562      0.100      0.000
      0.161      0.000      0.016      0.221      0.000     -0.019   1206.077   1001.206      0.100      0.000
      0.172      0.000      0.018      0.244      0.000     -0.028   1012.437   1001.012      0.100      0.000
      0.151      0.000      0.021      0.212      0.000     -0.016    995.649   1000.996      0.100      0.000
      0.155      0.000      0.029      0.235      0.000     -0.026    957.730   1000.958      0.100      0.000
      0.141      0.000      0.029      0.203      0.000     -0.037    974.244   1000.974      0.100      0.000
      0.147      0.000      0.035      0.208      0.000     -0.047   1004.154   1001.004      0.100      0.000
      0.132      0.000      0.036      0.186      0.000     -0.053    921.059   1000.921      0.100      0.000
      0.138      0.000      0.043      0.195      0.000     -0.062    897.229   1000.897      0.100      0.000
      0.125      0.000      0.044      0.170      0.000     -0.063    801.616   1000.802      0.100      0.000
      0.134      0.000      0.051      0.167      0.000     -0.076    728.732   1000.729      0.100      0.000
      0.122      0.000      0.052      0.149      0.000     -0.079    640.381   1000.640      0.100      0.000
      0.132      0.000      0.060      0.167      0.000     -0.083    685.370   1000.685      0.100      0.000
      0.119      0.000      0.060      0.136      0.000     -0.095    550.587   1000.551      0.100      0.000
      0.127      0.000      0.067      0.151      0.000     -0.098    734.831   1000.735      0.100      0.000
      0.115      0.000      0.069      0.124      0.000     -0.116    567.749   1000.568      0.100      0.000
      0.121      0.000      0.076      0.151      0.000     -0.107    452.074   1000.452      0.100      0.000
      0.111      0.000      0.079      0.097      0.000     -0.130    884.903   1000.885      0.100      0.000
      0.117      0.000      0.085      0.152      0.000     -0.126   -148.055    999.852      0.100      0.000
      0.111      0.000      0.089      0.105      0.000     -0.149    738.097   1000.738      0.100      0.000
      0.110      0.000      0.095      0.105      0.000     -0.137    309.067   1000.309      0.100      0.000
      0.109      0.000      0.100      0.101      0.000     -0.143    133.283   1000.133      0.100      0.000
      0.107      0.000      0.105      0.072      0.000     -0.153    262.404   1000.262      0.100      0.000
      0.106      0.000      0.111      0.067      0.000     -0.151    301.783   1000.302      0.100      0.000
      0.105      0.000      0.118      0.065      0.000     -0.153     -2.445    999.998      0.100      0.000
      0.105      0.000      0.121      0.065      0.000     -0.157     43.605   1000.044      0.100      0.000
      0.105      0.000      0.125      0.064      0.000     -0.157     42.335   1000.042      0.100      0.000
      0.204      0.000      0.003      0.295      0.000      0.000   1150.598   1001.151      0.100      0.000
      0.218      0.000      0.007      0.332      0.000     -0.007   1547.735   1001.548      0.100      0.000
      0.191      0.000      0.007      0.271      0.000     -0.010   1697.337   1001.697      0.100      0.000
      0.210      0.000      0.012      0.311      0.000     -0.022   1521.809   1001.522      0.100      0.000
      0.197      0.000      0.014      0.298      0.000     -0.022   1244.876   1001.245      0.100      0.000
      0.204      0.000      0.019      0.302      0.000     -0.021   1037.756   1001.038      0.100      0.000
      0.189      0.000      0.020      0.279      0.000     -0.028   1037.346   1001.037      0.100      0.000
      0.180      0.000      0.024      0.253      0.000     -0.036    976.138   1000.976      0.100      0.000
      0.166      0.000      0.025      0.232      0.000     -0.040   1027.915   1001.028      0.100      0.000
      0.166      0.000      0.033      0.248      0.000     -0.042   1091.162   1001.091      0.100      0.000
      0.162      0.000      0.040      0.224      0.000     -0.048    910.250   1000.910      0.100      0.000
      0.152      0.000      0.042      0.226      0.000     -0.054    899.986   1000.900      0.100      0.000
      0.162      0.000      0.049      0.218      0.000     -0.051    762.714   1000.763      0.100      0.000
      0.147      0.000      0.049      0.189      0.000     -0.077    867.139   1000.867      0.100      0.000
      0.157      0.000      0.057      0.184      0.000     -0.068    729.176   1000.729      0.100      0.000
      0.145      0.000      0.057      0.168      0.000     -0.086    698.905   1000.699      0.100      0.000
      0.146      0.000      0.064      0.177      0.000     -0.085    725.304   1000.725      0.100      0.000
      0.146      0.000      0.071      0.185      0.000     -0.077    743.475   1000.743      0.100      0.000
      0.135      0.000      0.072      0.157      0.000     -0.115    287.697   1000.288      0.100      0.000
      0.142      0.000      0.080      0.173      0.000     -0.092    502.618   1000.503      0.100      0.000
      0.131      0.000      0.081      0.122      0.000     -0.136    741.513   1000.742      0.100      0.000
      0.138      0.000      0.087      0.177      0.000     -0.126    -37.524    999.962      0.100      0.000
      0.132      0.000      0.091      0.129      0.000     -0.149    734.645   1000.735      0.100      0.000
      0.129      0.000      0.097      0.099      0.000     -0.147    256.157   1000.256      0.100      0.000
      0.130      0.000      0.102      0.112      0.000     -0.154     97.836   1000.098      0.100      0.000
      0.128      0.000      0.107      0.088      0.000     -0.157    363.120   1000.363      0.100      0.000
      0.126      0.000      0.113      0.071      0.000     -0.158    207.672   1000.208      0.100      0.000
      0.126      0.000      0.119      0.081      0.000     -0.162     54.513   1000.055      0.100      0.000
      0.125      0.000      0.122      0.075      0.000     -0.163     19.938   1000.020      0.100      0.000
      0.125      0.000      0.126      0.077      0.000     -0.164     41.533   1000.042      0.100      0.000
      0.230      0.000      0.003      0.341      0.000     -0.000   1298.718   1001.299      0.100      0.000
      0.242      0.000      0.008      0.349      0.000     -0.007   1573.487   1001.573      0.100      0.000
      0.230      0.000      0.013      0.336      0.000     -0.002   1283.534   1001.284      0.100      0.000
      0.252      0.000      0.013      0.356      0.000     -0.007   1267.299   1001.267      0.100      0.000
      0.239      0.000      0.017      0.342      0.000     -0.017   1202.003   1001.202      0.100      0.000
      0.222      0.000      0.017      0.315      0.000     -0.020   1074.857   1001.075      0.100      0.000
      0.216      0.000      0.023      0.302      0.000     -0.027    962.363   1000.962      0.100      0.000
      0.200      0.000      0.027      0.272      0.000     -0.031   1017.796   1001.018      0.100      0.000
      0.191      0.000      0.030      0.257      0.000     -0.046   1024.504   1001.025      0.100      0.000
      0.179      0.000      0.033      0.244      0.000     -0.042    976.254   1000.976      0.100      0.000
      0.187      0.000      0.039      0.256      0.000     -0.053    978.680   1000.979      0.100      0.000
      0.174      0.000      0.041      0.242      0.000     -0.048    977.480   1000.977      0.100      0.000
      0.185      0.000      0.048      0.247      0.000     -0.058    721.679   1000.722      0.100      0.000
      0.173      0.000      0.049      0.225      0.000     -0.060    704.952   1000.705      0.100      0.000
      0.181      0.000      0.056      0.237      0.000     -0.074    967.535   1000.968      0.100      0.000
      0.171      0.000      0.058      0.227      0.000     -0.068    630.415   1000.630      0.100      0.000
      0.164      0.000      0.063      0.187      0.000     -0.089    731.152   1000.731      0.100      0.000
      0.168      0.000      0.070      0.227      0.000     -0.091    715.115   1000.715      0.100      0.000
      0.157      0.000      0.071      0.186      0.000     -0.113    289.604   1000.290      0.100      0.000
      0.164      0.000      0.079      0.211      0.000     -0.101    462.321   1000.462      0.100      0.000
      0.154      0.000      0.081      0.167      0.000     -0.127    732.452   1000.732      0.100      0.000
      0.160      0.000      0.087      0.216      0.000     -0.124     97.840   1000.098      0.100      0.000
      0.155      0.000      0.092      0.176      0.000     -0.136    546.342   1000.546      0.100      0.000
      0.150      0.000      0.097      0.109      0.000     -0.160    350.205   1000.350      0.100      0.000
      0.151      0.000      0.102      0.138      0.000     -0.157      8.840   1000.009      0.100      0.000
      0.149      0.000      0.106      0.106      0.000     -0.165    410.027   1000.410      0.100      0.000
      0.146      0.000      0.112      0.089      0.000     -0.167    127.838   1000.128      0.100      0.000
      0.148      0.000      0.119      0.102      0.000     -0.174    131.397   1000.131      0.100      0.000
      0.147      0.000      0.121      0.095      0.000     -0.172    -26.291    999.974      0.100      0.000
      0.147      0.000      0.126      0.095      0.000     -0.174     39.624   1000.040      0.100      0.000
      0.253      0.000      0.003      0.358      0.000      0.000   1262.850   1001.263      0.100      0.000
      0.264      0.000      0.007      0.369      0.000     -0.009   1671.888   1001.672      0.100      0.000
      0.274      0.000      0.011      0.367      0.000     -0.009   1299.215   1001.299      0.100      0.000
      0.283      0.000      0.015      0.393      0.000     -0.025   1174.447   1001.174      0.100      0.000
      0.265      0.000      0.017      0.359      0.000     -0.012   1131.094   1001.131      0.100      0.000
      0.252      0.000      0.021      0.357      0.000     -0.011   1038.740   1001.039      0.100      0.000
      0.242      0.000      0.025      0.341      0.000     -0.023    990.715   1000.991      0.100      0.000
      0.230      0.000      0.024      0.324      0.000     -0.024   1012.797   1001.013      0.100      0.000
      0.223      0.000      0.031      0.298      0.000     -0.035    875.468   1000.875      0.100      0.000
      0.210      0.000      0.030      0.280      0.000     -0.040   1051.301   1001.051      0.100      0.000
      0.213      0.000      0.038      0.297      0.000     -0.047   1005.638   1001.006      0.100      0.000
      0.199      0.000      0.038      0.275      0.000     -0.049    964.753   1000.965      0.100      0.000
      0.205      0.000      0.045      0.284      0.000     -0.054    716.776   1000.717      0.100      0.000
      0.195      0.000      0.048      0.253      0.000     -0.075    740.757   1000.741      0.100      0.000
      0.198      0.000      0.055      0.269      0.000     -0.082    705.868   1000.706      0.100      0.000
      0.198      0.000      0.063      0.262      0.000     -0.076    747.638   1000.748      0.100      0.000
      0.186      0.000      0.063      0.247      0.000     -0.086    526.548   1000.527      0.100      0.000
      0.191      0.000      0.070      0.254      0.000     -0.089    680.501   1000.681      0.100      0.000
      0.179      0.000      0.070      0.223      0.000     -0.112    408.631   1000.409      0.100      0.000
      0.186      0.000      0.078      0.243      0.000     -0.097    499.544   1000.500      0.100      0.000
      0.176      0.000      0.080      0.200      0.000     -0.127    591.702   1000.592      0.100      0.000
      0.182      0.000      0.086      0.243      0.000     -0.117    200.944   1000.201      0.100      0.000
      0.176      0.000      0.091      0.202      0.000     -0.138    498.246   1000.498      0.100      0.000
      0.172      0.000      0.096      0.141      0.000     -0.153    509.679   1000.510      0.100      0.000
      0.173      0.000      0.101      0.168      0.000     -0.148   -122.859    999.877      0.100      0.000
      0.170      0.000      0.106      0.137      0.000     -0.158    485.799   1000.486      0.100      0.000
      0.168      0.000      0.111      0.114      0.000     -0.160     74.553   1000.075      0.100      0.000
      0.169      0.000      0.118      0.128      0.000     -0.168    198.409   1000.198      0.100      0.000