 TITLE= "tecplot results" 
  VARIABLES = "X"  "Y"  "Z" "U"  "V" "W" "pres" "dens" "mass"  "visc"  
 ZONE 
     STRANDID=1, SOLUTIONTIME= 12    
I=   1800 , J=1, K=1, F=POINT 
      0.005      0.000      0.005      0.003      0.000     -0.005   3074.301   1003.074      0.100      0.000
      0.005      0.000      0.015      0.002      0.000     -0.010   2928.364   1002.928      0.100      0.000
      0.005      0.000      0.024      0.001      0.000     -0.015   2873.415   1002.873      0.100      0.000
      0.005      0.000      0.034      0.001      0.000     -0.020   2776.770   1002.777      0.100      0.000
      0.005      0.000      0.044      0.001      0.000     -0.025   2672.793   1002.673      0.100      0.000
      0.005      0.000      0.053      0.001      0.000     -0.031   2575.965   1002.576      0.100      0.000
      0.005      0.000      0.063      0.001      0.000     -0.036   2475.737   1002.476      0.100      0.000
      0.005      0.000      0.073      0.001      0.000     -0.041   2376.300   1002.376      0.100      0.000
      0.005      0.000      0.082      0.001      0.000     -0.046   2276.026   1002.276      0.100      0.000
      0.005      0.000      0.092      0.001      0.000     -0.050   2175.340   1002.175      0.100      0.000
      0.005      0.000      0.102      0.002      0.000     -0.055   2073.923   1002.074      0.100      0.000
      0.005      0.000      0.111      0.002      0.000     -0.059   1971.873   1001.972      0.100      0.000
      0.005      0.000      0.121      0.002      0.000     -0.063   1868.964   1001.869      0.100      0.000
      0.005      0.000      0.131      0.002      0.000     -0.067   1765.321   1001.765      0.100      0.000
      0.005      0.000      0.141      0.002      0.000     -0.070   1660.840   1001.661      0.100      0.000
      0.005      0.000      0.150      0.002      0.000     -0.073   1555.613   1001.556      0.100      0.000
      0.005      0.000      0.160      0.001      0.000     -0.076   1449.705   1001.450      0.100      0.000
      0.005      0.000      0.170      0.001      0.000     -0.079   1343.203   1001.343      0.100      0.000
      0.005      0.000      0.180      0.001      0.000     -0.082   1236.241   1001.236      0.100      0.000
      0.005      0.000      0.190      0.001      0.000     -0.084   1128.993   1001.129      0.100      0.000
      0.005      0.000      0.200      0.001      0.000     -0.086   1021.433   1001.021      0.100      0.000
      0.005      0.000      0.209      0.001      0.000     -0.088    913.858   1000.914      0.100      0.000
      0.005      0.000      0.219      0.001      0.000     -0.090    806.056   1000.806      0.100      0.000
      0.005      0.000      0.229      0.001      0.000     -0.092    698.207   1000.698      0.100      0.000
      0.005      0.000      0.239      0.001      0.000     -0.093    590.373   1000.590      0.100      0.000
      0.005      0.000      0.249      0.001      0.000     -0.095    482.237   1000.482      0.100      0.000
      0.005      0.000      0.259      0.001      0.000     -0.096    374.719   1000.375      0.100      0.000
      0.005      0.000      0.269      0.001      0.000     -0.097    265.077   1000.265      0.100      0.000
      0.005      0.000      0.279      0.001      0.000     -0.098    161.671   1000.162      0.100      0.000
      0.005      0.000      0.289      0.000      0.000     -0.101     54.541   1000.055      0.100      0.000
      0.016      0.000      0.005      0.007      0.000     -0.003   3102.882   1003.103      0.100      0.000
      0.016      0.000      0.015      0.005      0.000     -0.007   3115.706   1003.116      0.100      0.000
      0.016      0.000      0.024      0.005      0.000     -0.014   3038.091   1003.038      0.100      0.000
      0.016      0.000      0.034      0.005      0.000     -0.020   2946.776   1002.947      0.100      0.000
      0.016      0.000      0.044      0.005      0.000     -0.025   2817.420   1002.817      0.100      0.000
      0.015      0.000      0.053      0.005      0.000     -0.031   2724.372   1002.724      0.100      0.000
      0.015      0.000      0.063      0.005      0.000     -0.036   2611.762   1002.612      0.100      0.000
      0.015      0.000      0.073      0.005      0.000     -0.041   2506.788   1002.507      0.100      0.000
      0.015      0.000      0.082      0.005      0.000     -0.046   2398.407   1002.398      0.100      0.000
      0.015      0.000      0.092      0.005      0.000     -0.051   2290.379   1002.290      0.100      0.000
      0.015      0.000      0.102      0.005      0.000     -0.055   2181.335   1002.181      0.100      0.000
      0.015      0.000      0.111      0.005      0.000     -0.060   2071.856   1002.072      0.100      0.000
      0.015      0.000      0.121      0.005      0.000     -0.064   1961.455   1001.961      0.100      0.000
      0.015      0.000      0.131      0.005      0.000     -0.068   1850.522   1001.851      0.100      0.000
      0.015      0.000      0.141      0.005      0.000     -0.071   1738.833   1001.739      0.100      0.000
      0.015      0.000      0.150      0.005      0.000     -0.074   1626.544   1001.627      0.100      0.000
      0.015      0.000      0.160      0.005      0.000     -0.078   1513.849   1001.514      0.100      0.000
      0.015      0.000      0.170      0.004      0.000     -0.080   1400.616   1001.401      0.100      0.000
      0.015      0.000      0.180      0.004      0.000     -0.083   1287.343   1001.287      0.100      0.000
      0.015      0.000      0.190      0.004      0.000     -0.085   1173.806   1001.174      0.100      0.000
      0.015      0.000      0.199      0.004      0.000     -0.088   1060.394   1001.060      0.100      0.000
      0.015      0.000      0.209      0.004      0.000     -0.089    947.156   1000.947      0.100      0.000
      0.015      0.000      0.219      0.003      0.000     -0.091    833.982   1000.834      0.100      0.000
      0.015      0.000      0.229      0.003      0.000     -0.093    721.105   1000.721      0.100      0.000
      0.015      0.000      0.239      0.003      0.000     -0.094    608.962   1000.609      0.100      0.000
      0.015      0.000      0.249      0.003      0.000     -0.096    495.415   1000.495      0.100      0.000
      0.015      0.000      0.259      0.003      0.000     -0.097    387.395   1000.387      0.100      0.000
      0.015      0.000      0.269      0.002      0.000     -0.098    267.505   1000.268      0.100      0.000
      0.015      0.000      0.279      0.002      0.000     -0.099    169.850   1000.170      0.100      0.000
      0.015      0.000      0.288      0.002      0.000     -0.101     57.551   1000.058      0.100      0.000
      0.026      0.000      0.005      0.011      0.000     -0.003   3153.784   1003.154      0.100      0.000
      0.026      0.000      0.015      0.009      0.000     -0.007   3189.005   1003.189      0.100      0.000
      0.026      0.000      0.024      0.009      0.000     -0.013   3124.948   1003.125      0.100      0.000
      0.026      0.000      0.034      0.009      0.000     -0.019   3021.964   1003.022      0.100      0.000
      0.026      0.000      0.044      0.008      0.000     -0.024   2892.342   1002.892      0.100      0.000
      0.026      0.000      0.053      0.009      0.000     -0.030   2799.596   1002.800      0.100      0.000
      0.026      0.000      0.063      0.009      0.000     -0.035   2683.131   1002.683      0.100      0.000
      0.026      0.000      0.073      0.009      0.000     -0.040   2576.639   1002.577      0.100      0.000
      0.026      0.000      0.082      0.009      0.000     -0.045   2466.045   1002.466      0.100      0.000
      0.026      0.000      0.092      0.009      0.000     -0.050   2355.878   1002.356      0.100      0.000
      0.026      0.000      0.102      0.008      0.000     -0.055   2244.766   1002.245      0.100      0.000
      0.026      0.000      0.111      0.008      0.000     -0.059   2133.185   1002.133      0.100      0.000
      0.026      0.000      0.121      0.008      0.000     -0.063   2020.670   1002.021      0.100      0.000
      0.026      0.000      0.131      0.008      0.000     -0.067   1907.657   1001.908      0.100      0.000
      0.026      0.000      0.141      0.008      0.000     -0.071   1793.876   1001.794      0.100      0.000
      0.025      0.000      0.150      0.008      0.000     -0.074   1679.484   1001.679      0.100      0.000
      0.025      0.000      0.160      0.008      0.000     -0.077   1564.703   1001.565      0.100      0.000
      0.025      0.000      0.170      0.007      0.000     -0.080   1449.306   1001.449      0.100      0.000
      0.025      0.000      0.180      0.007      0.000     -0.083   1333.892   1001.334      0.100      0.000
      0.025      0.000      0.190      0.007      0.000     -0.085   1218.055   1001.218      0.100      0.000
      0.025      0.000      0.199      0.006      0.000     -0.087   1102.347   1001.102      0.100      0.000
      0.025      0.000      0.209      0.006      0.000     -0.089    986.418   1000.986      0.100      0.000
      0.025      0.000      0.219      0.006      0.000     -0.091    870.769   1000.871      0.100      0.000
      0.025      0.000      0.229      0.005      0.000     -0.093    754.540   1000.755      0.100      0.000
      0.025      0.000      0.239      0.005      0.000     -0.094    639.604   1000.640      0.100      0.000
      0.025      0.000      0.249      0.004      0.000     -0.096    521.506   1000.522      0.100      0.000
      0.025      0.000      0.259      0.004      0.000     -0.097    409.661   1000.410      0.100      0.000
      0.025      0.000      0.269      0.004      0.000     -0.098    285.599   1000.286      0.100      0.000
      0.025      0.000      0.279      0.003      0.000     -0.099    178.316   1000.178      0.100      0.000
      0.025      0.000      0.288      0.003      0.000     -0.102     57.550   1000.058      0.100      0.000
      0.036      0.000      0.005      0.014      0.000     -0.003   3097.002   1003.097      0.100      0.000
      0.036      0.000      0.015      0.013      0.000     -0.007   3130.598   1003.131      0.100      0.000
      0.036      0.000      0.024      0.012      0.000     -0.013   3060.198   1003.060      0.100      0.000
      0.036      0.000      0.034      0.012      0.000     -0.018   2959.208   1002.959      0.100      0.000
      0.036      0.000      0.044      0.012      0.000     -0.024   2832.011   1002.832      0.100      0.000
      0.036      0.000      0.053      0.012      0.000     -0.029   2737.981   1002.738      0.100      0.000
      0.036      0.000      0.063      0.012      0.000     -0.034   2621.843   1002.622      0.100      0.000
      0.036      0.000      0.073      0.012      0.000     -0.039   2515.454   1002.515      0.100      0.000
      0.036      0.000      0.082      0.012      0.000     -0.044   2404.839   1002.405      0.100      0.000
      0.036      0.000      0.092      0.012      0.000     -0.049   2294.619   1002.295      0.100      0.000
      0.036      0.000      0.102      0.012      0.000     -0.054   2183.685   1002.184      0.100      0.000
      0.036      0.000      0.111      0.012      0.000     -0.058   2072.276   1002.072      0.100      0.000
      0.036      0.000      0.121      0.012      0.000     -0.062   1960.149   1001.960      0.100      0.000
      0.036      0.000      0.131      0.012      0.000     -0.066   1847.686   1001.848      0.100      0.000
      0.036      0.000      0.141      0.011      0.000     -0.070   1734.631   1001.735      0.100      0.000
      0.036      0.000      0.150      0.011      0.000     -0.073   1621.223   1001.621      0.100      0.000
      0.036      0.000      0.160      0.011      0.000     -0.077   1507.619   1001.508      0.100      0.000
      0.036      0.000      0.170      0.010      0.000     -0.080   1393.700   1001.394      0.100      0.000
      0.036      0.000      0.180      0.010      0.000     -0.082   1279.973   1001.280      0.100      0.000
      0.036      0.000      0.190      0.010      0.000     -0.085   1166.098   1001.166      0.100      0.000
      0.036      0.000      0.199      0.009      0.000     -0.087   1052.725   1001.053      0.100      0.000
      0.036      0.000      0.209      0.009      0.000     -0.089    939.231   1000.939      0.100      0.000
      0.035      0.000      0.219      0.008      0.000     -0.091    826.724   1000.827      0.100      0.000
      0.035      0.000      0.229      0.008      0.000     -0.093    713.439   1000.713      0.100      0.000
      0.035      0.000      0.239      0.007      0.000     -0.095    602.923   1000.603      0.100      0.000
      0.035      0.000      0.249      0.006      0.000     -0.096    488.160   1000.488      0.100      0.000
      0.035      0.000      0.259      0.006      0.000     -0.097    383.088   1000.383      0.100      0.000
      0.035      0.000      0.269      0.006      0.000     -0.099    263.194   1000.263      0.100      0.000
      0.035      0.000      0.279      0.005      0.000     -0.100    166.098   1000.166      0.100      0.000
      0.035      0.000      0.288      0.005      0.000     -0.102     56.955   1000.057      0.100      0.000
      0.047      0.000      0.005      0.018      0.000     -0.003   3045.378   1003.045      0.100      0.000
      0.046      0.000      0.015      0.017      0.000     -0.007   3070.147   1003.070      0.100      0.000
      0.046      0.000      0.024      0.017      0.000     -0.012   3001.191   1003.001      0.100      0.000
      0.046      0.000      0.034      0.016      0.000     -0.018   2901.574   1002.902      0.100      0.000
      0.046      0.000      0.044      0.016      0.000     -0.023   2775.071   1002.775      0.100      0.000
      0.046      0.000      0.053      0.016      0.000     -0.029   2682.187   1002.682      0.100      0.000
      0.046      0.000      0.063      0.016      0.000     -0.034   2567.780   1002.568      0.100      0.000
      0.046      0.000      0.073      0.016      0.000     -0.039   2462.799   1002.463      0.100      0.000
      0.046      0.000      0.082      0.016      0.000     -0.044   2353.936   1002.354      0.100      0.000
      0.046      0.000      0.092      0.016      0.000     -0.049   2245.457   1002.245      0.100      0.000
      0.046      0.000      0.102      0.016      0.000     -0.053   2136.560   1002.137      0.100      0.000
      0.046      0.000      0.111      0.016      0.000     -0.058   2027.208   1002.027      0.100      0.000
      0.046      0.000      0.121      0.016      0.000     -0.062   1917.415   1001.917      0.100      0.000
      0.046      0.000      0.131      0.015      0.000     -0.066   1807.439   1001.807      0.100      0.000
      0.046      0.000      0.141      0.015      0.000     -0.069   1697.067   1001.697      0.100      0.000
      0.046      0.000      0.150      0.015      0.000     -0.073   1586.581   1001.587      0.100      0.000
      0.046      0.000      0.160      0.014      0.000     -0.076   1476.034   1001.476      0.100      0.000
      0.046      0.000      0.170      0.014      0.000     -0.079   1365.409   1001.365      0.100      0.000
      0.046      0.000      0.180      0.013      0.000     -0.082   1255.081   1001.255      0.100      0.000
      0.046      0.000      0.190      0.012      0.000     -0.085   1144.708   1001.145      0.100      0.000
      0.046      0.000      0.199      0.012      0.000     -0.087   1034.990   1001.035      0.100      0.000
      0.046      0.000      0.209      0.011      0.000     -0.089    924.993   1000.925      0.100      0.000
      0.046      0.000      0.219      0.010      0.000     -0.091    816.252   1000.816      0.100      0.000
      0.046      0.000      0.229      0.010      0.000     -0.093    705.999   1000.706      0.100      0.000
      0.045      0.000      0.239      0.009      0.000     -0.095    599.473   1000.599      0.100      0.000
      0.045      0.000      0.249      0.008      0.000     -0.097    486.515   1000.487      0.100      0.000
      0.045      0.000      0.259      0.008      0.000     -0.098    384.383   1000.384      0.100      0.000
      0.045      0.000      0.269      0.007      0.000     -0.100    266.040   1000.266      0.100      0.000
      0.045      0.000      0.279      0.007      0.000     -0.101    168.364   1000.168      0.100      0.000
      0.045      0.000      0.288      0.006      0.000     -0.103     54.999   1000.055      0.100      0.000
      0.057      0.000      0.005      0.021      0.000     -0.002   2988.747   1002.989      0.100      0.000
      0.057      0.000      0.015      0.021      0.000     -0.007   3019.270   1003.019      0.100      0.000
      0.057      0.000      0.024      0.020      0.000     -0.012   2950.529   1002.951      0.100      0.000
      0.057      0.000      0.034      0.020      0.000     -0.018   2850.707   1002.851      0.100      0.000
      0.057      0.000      0.044      0.020      0.000     -0.023   2725.534   1002.726      0.100      0.000
      0.057      0.000      0.053      0.020      0.000     -0.028   2633.024   1002.633      0.100      0.000
      0.057      0.000      0.063      0.020      0.000     -0.033   2519.331   1002.519      0.100      0.000
      0.057      0.000      0.073      0.020      0.000     -0.038   2415.006   1002.415      0.100      0.000
      0.057      0.000      0.082      0.020      0.000     -0.043   2306.885   1002.307      0.100      0.000
      0.057      0.000      0.092      0.020      0.000     -0.048   2199.155   1002.199      0.100      0.000
      0.057      0.000      0.102      0.020      0.000     -0.053   2091.166   1002.091      0.100      0.000
      0.056      0.000      0.111      0.019      0.000     -0.057   1982.721   1001.983      0.100      0.000
      0.056      0.000      0.121      0.019      0.000     -0.061   1874.036   1001.874      0.100      0.000
      0.056      0.000      0.131      0.019      0.000     -0.065   1765.239   1001.765      0.100      0.000
      0.056      0.000      0.141      0.018      0.000     -0.069   1656.192   1001.656      0.100      0.000
      0.056      0.000      0.150      0.018      0.000     -0.073   1547.187   1001.547      0.100      0.000
      0.056      0.000      0.160      0.017      0.000     -0.076   1438.210   1001.438      0.100      0.000
      0.056      0.000      0.170      0.016      0.000     -0.079   1329.313   1001.329      0.100      0.000
      0.056      0.000      0.180      0.016      0.000     -0.082   1220.804   1001.221      0.100      0.000
      0.056      0.000      0.190      0.015      0.000     -0.085   1112.325   1001.112      0.100      0.000
      0.056      0.000      0.199      0.014      0.000     -0.088   1004.633   1001.005      0.100      0.000
      0.056      0.000      0.209      0.013      0.000     -0.090    896.608   1000.897      0.100      0.000
      0.056      0.000      0.219      0.013      0.000     -0.092    790.201   1000.790      0.100      0.000
      0.056      0.000      0.229      0.012      0.000     -0.094    681.765   1000.682      0.100      0.000
      0.056      0.000      0.239      0.011      0.000     -0.096    577.877   1000.578      0.100      0.000
      0.056      0.000      0.249      0.010      0.000     -0.097    467.435   1000.467      0.100      0.000
      0.055      0.000      0.259      0.009      0.000     -0.099    367.908   1000.368      0.100      0.000
      0.055      0.000      0.268      0.009      0.000     -0.101    252.557   1000.253      0.100      0.000
      0.055      0.000      0.278      0.008      0.000     -0.102    160.567   1000.161      0.100      0.000
      0.055      0.000      0.288      0.008      0.000     -0.104     52.639   1000.053      0.100      0.000
      0.067      0.000      0.005      0.025      0.000     -0.002   2920.630   1002.921      0.100      0.000
      0.067      0.000      0.015      0.025      0.000     -0.007   2944.569   1002.945      0.100      0.000
      0.067      0.000      0.024      0.025      0.000     -0.012   2873.928   1002.874      0.100      0.000
      0.067      0.000      0.034      0.024      0.000     -0.018   2774.937   1002.775      0.100      0.000
      0.067      0.000      0.044      0.024      0.000     -0.023   2650.884   1002.651      0.100      0.000
      0.067      0.000      0.053      0.024      0.000     -0.028   2558.698   1002.559      0.100      0.000
      0.067      0.000      0.063      0.024      0.000     -0.033   2446.139   1002.446      0.100      0.000
      0.067      0.000      0.073      0.024      0.000     -0.038   2342.712   1002.343      0.100      0.000
      0.067      0.000      0.082      0.024      0.000     -0.043   2235.793   1002.236      0.100      0.000
      0.067      0.000      0.092      0.024      0.000     -0.048   2129.379   1002.129      0.100      0.000
      0.067      0.000      0.102      0.023      0.000     -0.052   2022.948   1002.023      0.100      0.000
      0.067      0.000      0.111      0.023      0.000     -0.057   1916.231   1001.916      0.100      0.000
      0.067      0.000      0.121      0.023      0.000     -0.061   1809.578   1001.810      0.100      0.000
      0.067      0.000      0.131      0.022      0.000     -0.065   1703.026   1001.703      0.100      0.000
      0.067      0.000      0.141      0.022      0.000     -0.069   1596.522   1001.597      0.100      0.000
      0.066      0.000      0.150      0.021      0.000     -0.073   1490.343   1001.490      0.100      0.000
      0.066      0.000      0.160      0.020      0.000     -0.076   1384.449   1001.384      0.100      0.000
      0.066      0.000      0.170      0.020      0.000     -0.080   1278.935   1001.279      0.100      0.000
      0.066      0.000      0.180      0.019      0.000     -0.083   1174.044   1001.174      0.100      0.000
      0.066      0.000      0.189      0.018      0.000     -0.086   1069.445   1001.069      0.100      0.000
      0.066      0.000      0.199      0.017      0.000     -0.088    965.865   1000.966      0.100      0.000
      0.066      0.000      0.209      0.016      0.000     -0.091    862.076   1000.862      0.100      0.000
      0.066      0.000      0.219      0.015      0.000     -0.093    760.284   1000.760      0.100      0.000
      0.066      0.000      0.229      0.014      0.000     -0.095    656.405   1000.656      0.100      0.000
      0.066      0.000      0.239      0.013      0.000     -0.097    557.186   1000.557      0.100      0.000
      0.066      0.000      0.249      0.012      0.000     -0.099    451.334   1000.451      0.100      0.000
      0.066      0.000      0.258      0.011      0.000     -0.100    356.986   1000.357      0.100      0.000
      0.065      0.000      0.268      0.010      0.000     -0.102    245.392   1000.245      0.100      0.000
      0.065      0.000      0.278      0.010      0.000     -0.103    156.606   1000.157      0.100      0.000
      0.065      0.000      0.288      0.009      0.000     -0.105     50.876   1000.051      0.100      0.000
      0.077      0.000      0.005      0.029      0.000     -0.002   2847.401   1002.847      0.100      0.000
      0.077      0.000      0.015      0.029      0.000     -0.006   2871.088   1002.871      0.100      0.000
      0.077      0.000      0.024      0.029      0.000     -0.012   2799.830   1002.800      0.100      0.000
      0.077      0.000      0.034      0.029      0.000     -0.017   2702.055   1002.702      0.100      0.000
      0.077      0.000      0.044      0.029      0.000     -0.022   2579.633   1002.580      0.100      0.000
      0.077      0.000      0.053      0.029      0.000     -0.028   2488.470   1002.488      0.100      0.000
      0.077      0.000      0.063      0.028      0.000     -0.033   2377.590   1002.378      0.100      0.000
      0.077      0.000      0.073      0.028      0.000     -0.038   2275.618   1002.276      0.100      0.000
      0.077      0.000      0.082      0.028      0.000     -0.043   2170.520   1002.171      0.100      0.000
      0.077      0.000      0.092      0.028      0.000     -0.048   2065.922   1002.066      0.100      0.000
      0.077      0.000      0.102      0.027      0.000     -0.052   1961.571   1001.962      0.100      0.000
      0.077      0.000      0.111      0.027      0.000     -0.057   1857.053   1001.857      0.100      0.000
      0.077      0.000      0.121      0.026      0.000     -0.061   1752.833   1001.753      0.100      0.000
      0.077      0.000      0.131      0.026      0.000     -0.065   1648.876   1001.649      0.100      0.000
      0.077      0.000      0.141      0.025      0.000     -0.069   1545.177   1001.545      0.100      0.000
      0.077      0.000      0.150      0.024      0.000     -0.073   1441.982   1001.442      0.100      0.000
      0.077      0.000      0.160      0.023      0.000     -0.077   1339.212   1001.339      0.100      0.000
      0.077      0.000      0.170      0.022      0.000     -0.080   1236.986   1001.237      0.100      0.000
      0.076      0.000      0.180      0.021      0.000     -0.083   1135.437   1001.135      0.100      0.000
      0.076      0.000      0.189      0.020      0.000     -0.086   1034.279   1001.034      0.100      0.000
      0.076      0.000      0.199      0.019      0.000     -0.089    934.148   1000.934      0.100      0.000
      0.076      0.000      0.209      0.018      0.000     -0.092    833.728   1000.834      0.100      0.000
      0.076      0.000      0.219      0.017      0.000     -0.094    735.317   1000.735      0.100      0.000
      0.076      0.000      0.229      0.016      0.000     -0.096    634.628   1000.635      0.100      0.000
      0.076      0.000      0.239      0.015      0.000     -0.098    538.777   1000.539      0.100      0.000
      0.076      0.000      0.248      0.014      0.000     -0.100    435.499   1000.435      0.100      0.000
      0.076      0.000      0.258      0.013      0.000     -0.101    344.315   1000.344      0.100      0.000
      0.076      0.000      0.268      0.012      0.000     -0.103    235.803   1000.236      0.100      0.000
      0.076      0.000      0.278      0.011      0.000     -0.104    150.861   1000.151      0.100      0.000
      0.075      0.000      0.288      0.011      0.000     -0.107     48.163   1000.048      0.100      0.000
      0.088      0.000      0.005      0.034      0.000     -0.002   2767.662   1002.768      0.100      0.000
      0.088      0.000      0.015      0.034      0.000     -0.006   2787.530   1002.788      0.100      0.000
      0.088      0.000      0.024      0.033      0.000     -0.012   2715.070   1002.715      0.100      0.000
      0.088      0.000      0.034      0.033      0.000     -0.017   2618.671   1002.619      0.100      0.000
      0.088      0.000      0.044      0.033      0.000     -0.022   2497.778   1002.498      0.100      0.000
      0.088      0.000      0.053      0.033      0.000     -0.028   2407.317   1002.407      0.100      0.000
      0.088      0.000      0.063      0.033      0.000     -0.033   2297.981   1002.298      0.100      0.000
      0.088      0.000      0.073      0.033      0.000     -0.038   2197.302   1002.197      0.100      0.000
      0.088      0.000      0.082      0.032      0.000     -0.043   2093.841   1002.094      0.100      0.000
      0.088      0.000      0.092      0.032      0.000     -0.048   1990.922   1001.991      0.100      0.000
      0.087      0.000      0.102      0.031      0.000     -0.052   1888.558   1001.889      0.100      0.000
      0.087      0.000      0.111      0.030      0.000     -0.057   1786.139   1001.786      0.100      0.000
      0.087      0.000      0.121      0.030      0.000     -0.061   1684.305   1001.684      0.100      0.000
      0.087      0.000      0.131      0.029      0.000     -0.066   1582.924   1001.583      0.100      0.000
      0.087      0.000      0.140      0.028      0.000     -0.070   1482.046   1001.482      0.100      0.000
      0.087      0.000      0.150      0.027      0.000     -0.074   1381.902   1001.382      0.100      0.000
      0.087      0.000      0.160      0.026      0.000     -0.077   1282.381   1001.282      0.100      0.000
      0.087      0.000      0.170      0.025      0.000     -0.081   1183.646   1001.184      0.100      0.000
      0.087      0.000      0.179      0.024      0.000     -0.084   1085.735   1001.086      0.100      0.000
      0.087      0.000      0.189      0.023      0.000     -0.087    988.423   1000.988      0.100      0.000
      0.086      0.000      0.199      0.022      0.000     -0.090    892.312   1000.892      0.100      0.000
      0.086      0.000      0.209      0.020      0.000     -0.093    796.022   1000.796      0.100      0.000
      0.086      0.000      0.219      0.019      0.000     -0.095    701.997   1000.702      0.100      0.000
      0.086      0.000      0.229      0.018      0.000     -0.097    605.577   1000.606      0.100      0.000
      0.086      0.000      0.238      0.016      0.000     -0.099    514.567   1000.515      0.100      0.000
      0.086      0.000      0.248      0.015      0.000     -0.101    415.843   1000.416      0.100      0.000
      0.086      0.000      0.258      0.014      0.000     -0.103    329.556   1000.330      0.100      0.000
      0.086      0.000      0.268      0.013      0.000     -0.105    225.310   1000.225      0.100      0.000