 TITLE= "tecplot results" 
  VARIABLES = "X"  "Y"  "Z" "U"  "V" "W" "pres" "dens" "mass"  "visc"  
 ZONE 
     STRANDID=1, SOLUTIONTIME= 43    
I=   1800 , J=1, K=1, F=POINT 
      0.011      0.000      0.002      0.020      0.000     -0.001   1189.531   1001.190      0.100      0.000
      0.007      0.000      0.010      0.005      0.000     -0.008   2110.634   1002.111      0.100      0.000
      0.007      0.000      0.017      0.009      0.000     -0.013   1530.065   1001.530      0.100      0.000
      0.007      0.000      0.024      0.014      0.000     -0.030   1194.223   1001.194      0.100      0.000
      0.007      0.000      0.030      0.016      0.000     -0.046   1292.464   1001.292      0.100      0.000
      0.007      0.000      0.037      0.013      0.000     -0.058   1307.988   1001.308      0.100      0.000
      0.007      0.000      0.044      0.010      0.000     -0.069   1242.485   1001.242      0.100      0.000
      0.007      0.000      0.052      0.009      0.000     -0.079   1190.831   1001.191      0.100      0.000
      0.007      0.000      0.059      0.008      0.000     -0.089   1153.375   1001.153      0.100      0.000
      0.007      0.000      0.066      0.007      0.000     -0.097   1100.914   1001.101      0.100      0.000
      0.007      0.000      0.074      0.007      0.000     -0.106   1049.953   1001.050      0.100      0.000
      0.006      0.000      0.081      0.007      0.000     -0.114    997.562   1000.998      0.100      0.000
      0.006      0.000      0.089      0.007      0.000     -0.123    944.199   1000.944      0.100      0.000
      0.006      0.000      0.096      0.006      0.000     -0.131    890.699   1000.891      0.100      0.000
      0.006      0.000      0.104      0.006      0.000     -0.140    836.902   1000.837      0.100      0.000
      0.006      0.000      0.112      0.006      0.000     -0.148    782.916   1000.783      0.100      0.000
      0.006      0.000      0.119      0.006      0.000     -0.157    728.858   1000.729      0.100      0.000
      0.006      0.000      0.127      0.006      0.000     -0.166    674.689   1000.675      0.100      0.000
      0.006      0.000      0.135      0.006      0.000     -0.174    620.287   1000.620      0.100      0.000
      0.006      0.000      0.143      0.006      0.000     -0.183    565.839   1000.566      0.100      0.000
      0.006      0.000      0.151      0.006      0.000     -0.192    511.174   1000.511      0.100      0.000
      0.006      0.000      0.159      0.005      0.000     -0.200    456.091   1000.456      0.100      0.000
      0.006      0.000      0.167      0.005      0.000     -0.209    402.108   1000.402      0.100      0.000
      0.006      0.000      0.176      0.005      0.000     -0.218    345.594   1000.346      0.100      0.000
      0.006      0.000      0.184      0.005      0.000     -0.226    292.305   1000.292      0.100      0.000
      0.006      0.000      0.192      0.005      0.000     -0.234    238.453   1000.238      0.100      0.000
      0.006      0.000      0.200      0.004      0.000     -0.243    172.593   1000.173      0.100      0.000
      0.006      0.000      0.209      0.005      0.000     -0.250    145.638   1000.146      0.100      0.000
      0.006      0.000      0.217      0.004      0.000     -0.258     47.336   1000.047      0.100      0.000
      0.005      0.000      0.225      0.003      0.000     -0.270     15.773   1000.016      0.100      0.000
      0.027      0.000      0.004      0.034      0.000     -0.002   1936.872   1001.937      0.100      0.000
      0.019      0.000      0.010      0.007      0.000     -0.010   2348.970   1002.349      0.100      0.000
      0.022      0.000      0.018      0.061      0.000     -0.027   1470.347   1001.470      0.100      0.000
      0.022      0.000      0.024      0.056      0.000     -0.038   1342.049   1001.342      0.100      0.000
      0.021      0.000      0.031      0.020      0.000     -0.057   1716.510   1001.717      0.100      0.000
      0.021      0.000      0.038      0.043      0.000     -0.063   1452.381   1001.452      0.100      0.000
      0.020      0.000      0.045      0.023      0.000     -0.073   1418.985   1001.419      0.100      0.000
      0.020      0.000      0.052      0.026      0.000     -0.082   1380.983   1001.381      0.100      0.000
      0.020      0.000      0.059      0.022      0.000     -0.090   1333.825   1001.334      0.100      0.000
      0.020      0.000      0.067      0.021      0.000     -0.097   1257.858   1001.258      0.100      0.000
      0.020      0.000      0.074      0.020      0.000     -0.105   1208.071   1001.208      0.100      0.000
      0.019      0.000      0.081      0.020      0.000     -0.113   1142.367   1001.142      0.100      0.000
      0.019      0.000      0.089      0.019      0.000     -0.121   1080.062   1001.080      0.100      0.000
      0.019      0.000      0.097      0.019      0.000     -0.130   1018.000   1001.018      0.100      0.000
      0.019      0.000      0.104      0.019      0.000     -0.138    954.623   1000.955      0.100      0.000
      0.019      0.000      0.112      0.019      0.000     -0.146    891.766   1000.892      0.100      0.000
      0.019      0.000      0.120      0.018      0.000     -0.155    828.786   1000.829      0.100      0.000
      0.019      0.000      0.128      0.018      0.000     -0.163    766.399   1000.766      0.100      0.000
      0.018      0.000      0.136      0.018      0.000     -0.172    702.926   1000.703      0.100      0.000
      0.018      0.000      0.143      0.017      0.000     -0.181    640.670   1000.641      0.100      0.000
      0.018      0.000      0.151      0.017      0.000     -0.189    578.725   1000.579      0.100      0.000
      0.018      0.000      0.160      0.017      0.000     -0.198    511.961   1000.512      0.100      0.000
      0.018      0.000      0.168      0.016      0.000     -0.206    456.553   1000.457      0.100      0.000
      0.018      0.000      0.176      0.016      0.000     -0.215    385.274   1000.385      0.100      0.000
      0.018      0.000      0.184      0.016      0.000     -0.223    323.039   1000.323      0.100      0.000
      0.018      0.000      0.192      0.015      0.000     -0.231    287.424   1000.287      0.100      0.000
      0.018      0.000      0.200      0.014      0.000     -0.241    147.187   1000.147      0.100      0.000
      0.018      0.000      0.209      0.015      0.000     -0.247    226.299   1000.226      0.100      0.000
      0.017      0.000      0.217      0.013      0.000     -0.255    -18.065    999.982      0.100      0.000
      0.017      0.000      0.225      0.014      0.000     -0.268     41.749   1000.042      0.100      0.000
      0.042      0.000      0.004      0.060      0.000     -0.005   1846.595   1001.847      0.100      0.000
      0.034      0.000      0.011      0.032      0.000     -0.013   2221.478   1002.221      0.100      0.000
      0.037      0.000      0.018      0.102      0.000     -0.032   1638.232   1001.638      0.100      0.000
      0.036      0.000      0.025      0.079      0.000     -0.039   1482.112   1001.482      0.100      0.000
      0.035      0.000      0.031      0.045      0.000     -0.056   1643.660   1001.644      0.100      0.000
      0.035      0.000      0.038      0.063      0.000     -0.063   1510.316   1001.510      0.100      0.000
      0.034      0.000      0.045      0.040      0.000     -0.073   1435.742   1001.436      0.100      0.000
      0.034      0.000      0.053      0.042      0.000     -0.082   1421.341   1001.421      0.100      0.000
      0.033      0.000      0.060      0.036      0.000     -0.089   1344.711   1001.345      0.100      0.000
      0.033      0.000      0.067      0.036      0.000     -0.097   1286.127   1001.286      0.100      0.000
      0.033      0.000      0.075      0.034      0.000     -0.104   1232.287   1001.232      0.100      0.000
      0.033      0.000      0.082      0.034      0.000     -0.112   1168.256   1001.168      0.100      0.000
      0.032      0.000      0.090      0.033      0.000     -0.119   1108.565   1001.109      0.100      0.000
      0.032      0.000      0.097      0.033      0.000     -0.127   1047.762   1001.048      0.100      0.000
      0.032      0.000      0.105      0.033      0.000     -0.135    985.434   1000.985      0.100      0.000
      0.032      0.000      0.113      0.032      0.000     -0.143    923.476   1000.923      0.100      0.000
      0.031      0.000      0.121      0.032      0.000     -0.151    860.157   1000.860      0.100      0.000
      0.031      0.000      0.128      0.032      0.000     -0.159    797.595   1000.798      0.100      0.000
      0.031      0.000      0.136      0.031      0.000     -0.168    732.901   1000.733      0.100      0.000
      0.031      0.000      0.144      0.031      0.000     -0.176    668.920   1000.669      0.100      0.000
      0.030      0.000      0.152      0.030      0.000     -0.185    607.096   1000.607      0.100      0.000
      0.030      0.000      0.160      0.030      0.000     -0.193    535.757   1000.536      0.100      0.000
      0.030      0.000      0.168      0.029      0.000     -0.201    482.957   1000.483      0.100      0.000
      0.030      0.000      0.177      0.029      0.000     -0.210    406.036   1000.406      0.100      0.000
      0.030      0.000      0.185      0.028      0.000     -0.219    338.832   1000.339      0.100      0.000
      0.030      0.000      0.193      0.027      0.000     -0.226    314.371   1000.314      0.100      0.000
      0.030      0.000      0.201      0.027      0.000     -0.237    141.917   1000.142      0.100      0.000
      0.029      0.000      0.209      0.026      0.000     -0.242    256.960   1000.257      0.100      0.000
      0.029      0.000      0.218      0.025      0.000     -0.252    -34.343    999.966      0.100      0.000
      0.029      0.000      0.225      0.025      0.000     -0.265     54.518   1000.055      0.100      0.000
      0.056      0.000      0.004      0.105      0.000     -0.007   1808.554   1001.809      0.100      0.000
      0.049      0.000      0.011      0.068      0.000     -0.022   2272.821   1002.273      0.100      0.000
      0.051      0.000      0.018      0.103      0.000     -0.026   1616.907   1001.617      0.100      0.000
      0.051      0.000      0.025      0.126      0.000     -0.031   1584.144   1001.584      0.100      0.000
      0.049      0.000      0.032      0.061      0.000     -0.054   1593.732   1001.594      0.100      0.000
      0.049      0.000      0.039      0.085      0.000     -0.060   1514.625   1001.515      0.100      0.000
      0.048      0.000      0.046      0.057      0.000     -0.071   1448.105   1001.448      0.100      0.000
      0.048      0.000      0.053      0.056      0.000     -0.079   1421.477   1001.421      0.100      0.000
      0.047      0.000      0.060      0.051      0.000     -0.087   1348.649   1001.349      0.100      0.000
      0.047      0.000      0.068      0.049      0.000     -0.094   1295.580   1001.296      0.100      0.000
      0.046      0.000      0.075      0.048      0.000     -0.101   1235.270   1001.235      0.100      0.000
      0.046      0.000      0.083      0.047      0.000     -0.109   1171.977   1001.172      0.100      0.000
      0.045      0.000      0.090      0.047      0.000     -0.116   1109.725   1001.110      0.100      0.000
      0.045      0.000      0.098      0.046      0.000     -0.124   1046.064   1001.046      0.100      0.000
      0.045      0.000      0.106      0.046      0.000     -0.132    981.726   1000.982      0.100      0.000
      0.044      0.000      0.113      0.046      0.000     -0.140    917.622   1000.918      0.100      0.000
      0.044      0.000      0.121      0.045      0.000     -0.148    852.426   1000.852      0.100      0.000
      0.044      0.000      0.129      0.045      0.000     -0.156    788.541   1000.789      0.100      0.000
      0.044      0.000      0.137      0.044      0.000     -0.165    722.772   1000.723      0.100      0.000
      0.043      0.000      0.145      0.044      0.000     -0.173    657.949   1000.658      0.100      0.000
      0.043      0.000      0.153      0.043      0.000     -0.181    595.810   1000.596      0.100      0.000
      0.043      0.000      0.161      0.043      0.000     -0.190    523.099   1000.523      0.100      0.000
      0.043      0.000      0.169      0.042      0.000     -0.198    470.756   1000.471      0.100      0.000
      0.042      0.000      0.177      0.041      0.000     -0.207    393.719   1000.394      0.100      0.000
      0.042      0.000      0.185      0.041      0.000     -0.216    326.788   1000.327      0.100      0.000
      0.042      0.000      0.193      0.040      0.000     -0.223    303.526   1000.304      0.100      0.000
      0.042      0.000      0.201      0.039      0.000     -0.234    132.087   1000.132      0.100      0.000
      0.042      0.000      0.210      0.038      0.000     -0.239    252.259   1000.252      0.100      0.000
      0.042      0.000      0.218      0.038      0.000     -0.249    -47.675    999.952      0.100      0.000
      0.041      0.000      0.225      0.037      0.000     -0.263     57.183   1000.057      0.100      0.000
      0.070      0.000      0.004      0.139      0.000     -0.005   1774.257   1001.774      0.100      0.000
      0.064      0.000      0.011      0.094      0.000     -0.023   2149.825   1002.150      0.100      0.000
      0.064      0.000      0.019      0.105      0.000     -0.022   1590.684   1001.591      0.100      0.000
      0.066      0.000      0.025      0.155      0.000     -0.030   1607.695   1001.608      0.100      0.000
      0.064      0.000      0.032      0.090      0.000     -0.047   1602.271   1001.602      0.100      0.000
      0.063      0.000      0.039      0.101      0.000     -0.054   1479.632   1001.480      0.100      0.000
      0.062      0.000      0.046      0.075      0.000     -0.066   1443.896   1001.444      0.100      0.000
      0.061      0.000      0.054      0.071      0.000     -0.074   1404.833   1001.405      0.100      0.000
      0.061      0.000      0.061      0.065      0.000     -0.083   1325.109   1001.325      0.100      0.000
      0.060      0.000      0.068      0.063      0.000     -0.091   1278.306   1001.278      0.100      0.000
      0.060      0.000      0.076      0.062      0.000     -0.099   1213.586   1001.214      0.100      0.000
      0.059      0.000      0.083      0.061      0.000     -0.107   1152.377   1001.152      0.100      0.000
      0.059      0.000      0.091      0.061      0.000     -0.115   1091.018   1001.091      0.100      0.000
      0.058      0.000      0.098      0.060      0.000     -0.123   1028.278   1001.028      0.100      0.000
      0.058      0.000      0.106      0.060      0.000     -0.131    965.740   1000.966      0.100      0.000
      0.057      0.000      0.114      0.059      0.000     -0.139    903.107   1000.903      0.100      0.000
      0.057      0.000      0.121      0.059      0.000     -0.147    839.617   1000.840      0.100      0.000
      0.057      0.000      0.129      0.058      0.000     -0.155    777.377   1000.777      0.100      0.000
      0.056      0.000      0.137      0.058      0.000     -0.163    713.030   1000.713      0.100      0.000
      0.056      0.000      0.145      0.057      0.000     -0.171    649.691   1000.650      0.100      0.000
      0.056      0.000      0.153      0.057      0.000     -0.180    588.966   1000.589      0.100      0.000
      0.055      0.000      0.161      0.056      0.000     -0.188    517.865   1000.518      0.100      0.000
      0.055      0.000      0.169      0.055      0.000     -0.196    467.353   1000.467      0.100      0.000
      0.055      0.000      0.177      0.055      0.000     -0.205    390.292   1000.390      0.100      0.000
      0.054      0.000      0.185      0.054      0.000     -0.214    326.558   1000.327      0.100      0.000
      0.054      0.000      0.193      0.053      0.000     -0.221    303.050   1000.303      0.100      0.000
      0.054      0.000      0.201      0.052      0.000     -0.233    129.715   1000.130      0.100      0.000
      0.054      0.000      0.210      0.051      0.000     -0.238    258.617   1000.259      0.100      0.000
      0.054      0.000      0.218      0.051      0.000     -0.249    -51.839    999.948      0.100      0.000
      0.054      0.000      0.225      0.050      0.000     -0.262     59.496   1000.059      0.100      0.000
      0.082      0.000      0.004      0.149      0.000      0.001   1949.315   1001.949      0.100      0.000
      0.079      0.000      0.012      0.123      0.000     -0.012   1926.988   1001.927      0.100      0.000
      0.079      0.000      0.019      0.108      0.000     -0.014   1652.121   1001.652      0.100      0.000
      0.081      0.000      0.026      0.187      0.000     -0.026   1641.928   1001.642      0.100      0.000
      0.078      0.000      0.033      0.118      0.000     -0.040   1603.233   1001.603      0.100      0.000
      0.078      0.000      0.040      0.119      0.000     -0.049   1476.646   1001.477      0.100      0.000
      0.076      0.000      0.047      0.095      0.000     -0.061   1459.209   1001.459      0.100      0.000
      0.075      0.000      0.054      0.088      0.000     -0.070   1400.634   1001.401      0.100      0.000
      0.074      0.000      0.061      0.081      0.000     -0.079   1326.939   1001.327      0.100      0.000
      0.074      0.000      0.068      0.078      0.000     -0.088   1280.997   1001.281      0.100      0.000
      0.073      0.000      0.076      0.077      0.000     -0.096   1215.081   1001.215      0.100      0.000
      0.072      0.000      0.083      0.076      0.000     -0.104   1155.355   1001.155      0.100      0.000
      0.072      0.000      0.091      0.075      0.000     -0.113   1094.054   1001.094      0.100      0.000
      0.071      0.000      0.098      0.074      0.000     -0.121   1031.185   1001.031      0.100      0.000
      0.071      0.000      0.106      0.074      0.000     -0.129    968.695   1000.969      0.100      0.000
      0.070      0.000      0.114      0.073      0.000     -0.137    905.547   1000.906      0.100      0.000
      0.070      0.000      0.122      0.072      0.000     -0.146    841.643   1000.842      0.100      0.000
      0.069      0.000      0.129      0.072      0.000     -0.154    778.952   1000.779      0.100      0.000
      0.069      0.000      0.137      0.071      0.000     -0.162    714.032   1000.714      0.100      0.000
      0.068      0.000      0.145      0.071      0.000     -0.170    650.522   1000.651      0.100      0.000
      0.068      0.000      0.153      0.070      0.000     -0.179    589.076   1000.589      0.100      0.000
      0.068      0.000      0.161      0.069      0.000     -0.187    517.304   1000.517      0.100      0.000
      0.067      0.000      0.169      0.069      0.000     -0.196    467.095   1000.467      0.100      0.000
      0.067      0.000      0.177      0.068      0.000     -0.204    387.963   1000.388      0.100      0.000
      0.067      0.000      0.185      0.067      0.000     -0.213    325.925   1000.326      0.100      0.000
      0.066      0.000      0.193      0.066      0.000     -0.221    301.219   1000.301      0.100      0.000
      0.066      0.000      0.201      0.066      0.000     -0.233    125.868   1000.126      0.100      0.000
      0.066      0.000      0.210      0.065      0.000     -0.238    261.667   1000.262      0.100      0.000
      0.066      0.000      0.218      0.064      0.000     -0.248    -61.362    999.939      0.100      0.000
      0.066      0.000      0.225      0.064      0.000     -0.262     61.829   1000.062      0.100      0.000
      0.093      0.000      0.004      0.132      0.000      0.002   1950.213   1001.950      0.100      0.000
      0.095      0.000      0.013      0.177      0.000     -0.002   1840.460   1001.840      0.100      0.000
      0.093      0.000      0.019      0.118      0.000     -0.014   1567.443   1001.567      0.100      0.000
      0.095      0.000      0.026      0.208      0.000     -0.029   1614.961   1001.615      0.100      0.000
      0.093      0.000      0.033      0.149      0.000     -0.039   1600.251   1001.600      0.100      0.000
      0.092      0.000      0.040      0.136      0.000     -0.047   1469.987   1001.470      0.100      0.000
      0.090      0.000      0.047      0.116      0.000     -0.058   1448.634   1001.449      0.100      0.000
      0.089      0.000      0.054      0.105      0.000     -0.067   1389.167   1001.389      0.100      0.000
      0.088      0.000      0.061      0.099      0.000     -0.077   1317.739   1001.318      0.100      0.000
      0.087      0.000      0.068      0.095      0.000     -0.086   1270.373   1001.270      0.100      0.000
      0.086      0.000      0.076      0.092      0.000     -0.094   1205.074   1001.205      0.100      0.000
      0.086      0.000      0.083      0.091      0.000     -0.103   1145.243   1001.145      0.100      0.000
      0.085      0.000      0.091      0.090      0.000     -0.112   1084.170   1001.084      0.100      0.000
      0.084      0.000      0.098      0.089      0.000     -0.120   1021.383   1001.021      0.100      0.000
      0.084      0.000      0.106      0.088      0.000     -0.128    959.242   1000.959      0.100      0.000
      0.083      0.000      0.114      0.087      0.000     -0.137    896.472   1000.896      0.100      0.000
      0.083      0.000      0.122      0.086      0.000     -0.145    833.080   1000.833      0.100      0.000
      0.082      0.000      0.129      0.086      0.000     -0.153    770.958   1000.771      0.100      0.000
      0.082      0.000      0.137      0.085      0.000     -0.162    706.494   1000.706      0.100      0.000
      0.081      0.000      0.145      0.084      0.000     -0.170    643.761   1000.644      0.100      0.000
      0.081      0.000      0.153      0.083      0.000     -0.179    582.872   1000.583      0.100      0.000
      0.080      0.000      0.161      0.083      0.000     -0.187    511.781   1000.512      0.100      0.000
      0.080      0.000      0.169      0.082      0.000     -0.196    462.907   1000.463      0.100      0.000
      0.079      0.000      0.177      0.081      0.000     -0.204    383.396   1000.383      0.100      0.000
      0.079      0.000      0.185      0.081      0.000     -0.213    323.616   1000.324      0.100      0.000
      0.079      0.000      0.193      0.080      0.000     -0.221    298.793   1000.299      0.100      0.000
      0.079      0.000      0.201      0.079      0.000     -0.233    122.984   1000.123      0.100      0.000
      0.078      0.000      0.210      0.078      0.000     -0.238    263.405   1000.263      0.100      0.000
      0.078      0.000      0.218      0.078      0.000     -0.249    -64.466    999.936      0.100      0.000
      0.078      0.000      0.225      0.077      0.000     -0.263     63.365   1000.063      0.100      0.000
      0.105      0.000      0.004      0.131      0.000      0.001   1857.868   1001.858      0.100      0.000
      0.109      0.000      0.012      0.184      0.000     -0.009   2015.173   1002.015      0.100      0.000
      0.108      0.000      0.019      0.160      0.000     -0.012   1540.374   1001.540      0.100      0.000
      0.110      0.000      0.026      0.222      0.000     -0.027   1509.498   1001.509      0.100      0.000
      0.108      0.000      0.033      0.176      0.000     -0.039   1647.563   1001.648      0.100      0.000
      0.106      0.000      0.040      0.153      0.000     -0.046   1480.698   1001.481      0.100      0.000
      0.104      0.000      0.047      0.136      0.000     -0.057   1429.058   1001.429      0.100      0.000
      0.103      0.000      0.054      0.124      0.000     -0.067   1388.097   1001.388      0.100      0.000
      0.102      0.000      0.061      0.116      0.000     -0.076   1312.372   1001.312      0.100      0.000
      0.101      0.000      0.068      0.112      0.000     -0.085   1260.146   1001.260      0.100      0.000
      0.100      0.000      0.076      0.109      0.000     -0.094   1199.609   1001.200      0.100      0.000
      0.099      0.000      0.083      0.106      0.000     -0.103   1138.730   1001.139      0.100      0.000
      0.098      0.000      0.091      0.105      0.000     -0.112   1078.929   1001.079      0.100      0.000
      0.097      0.000      0.098      0.104      0.000     -0.120   1017.232   1001.017      0.100      0.000
      0.097      0.000      0.106      0.102      0.000     -0.129    955.785   1000.956      0.100      0.000
      0.096      0.000      0.114      0.101      0.000     -0.137    893.816   1000.894      0.100      0.000
      0.095      0.000      0.121      0.100      0.000     -0.145    831.015   1000.831      0.100      0.000
      0.095      0.000      0.129      0.100      0.000     -0.154    769.435   1000.769      0.100      0.000
      0.094      0.000      0.137      0.099      0.000     -0.162    705.306   1000.705      0.100      0.000
      0.094      0.000      0.145      0.098      0.000     -0.171    643.081   1000.643      0.100      0.000
      0.093      0.000      0.153      0.097      0.000     -0.179    582.243   1000.582      0.100      0.000
      0.093      0.000      0.161      0.096      0.000     -0.188    511.265   1000.511      0.100      0.000
      0.092      0.000      0.169      0.096      0.000     -0.196    463.036   1000.463      0.100      0.000
      0.092      0.000      0.177      0.095      0.000     -0.205    382.288   1000.382      0.100      0.000
      0.092      0.000      0.185      0.094      0.000     -0.214    324.318   1000.324      0.100      0.000
      0.091      0.000      0.193      0.094      0.000     -0.222    298.355   1000.298      0.100      0.000
      0.091      0.000      0.201      0.093      0.000     -0.234    121.318   1000.121      0.100      0.000
      0.091      0.000      0.209      0.092      0.000     -0.239    267.072   1000.267      0.100      0.000
      0.090      0.000      0.218      0.092      0.000     -0.250    -70.746    999.929      0.100      0.000
      0.090      0.000      0.225      0.091      0.000     -0.263     64.926   1000.065      0.100      0.000
      0.117      0.000      0.004      0.144      0.000     -0.002   1891.567   1001.892      0.100      0.000
      0.123      0.000      0.012      0.177      0.000     -0.011   2058.418   1002.058      0.100      0.000
      0.124      0.000      0.019      0.219      0.000     -0.019   1553.611   1001.554      0.100      0.000
      0.124      0.000      0.026      0.228      0.000     -0.027   1508.584   1001.509      0.100      0.000
      0.122      0.000      0.033      0.204      0.000     -0.037   1649.779   1001.650      0.100      0.000
      0.120      0.000      0.040      0.172      0.000     -0.047   1498.198   1001.498      0.100      0.000
      0.119      0.000      0.047      0.157      0.000     -0.056   1417.773   1001.418      0.100      0.000
      0.117      0.000      0.054      0.143      0.000     -0.067   1385.246   1001.385      0.100      0.000
      0.116      0.000      0.061      0.135      0.000     -0.076   1310.436   1001.310      0.100      0.000
      0.114      0.000      0.068      0.129      0.000     -0.085   1250.943   1001.251      0.100      0.000
      0.113      0.000      0.076      0.125      0.000     -0.094   1194.649   1001.195      0.100      0.000
      0.112      0.000      0.083      0.122      0.000     -0.103   1131.709   1001.132      0.100      0.000
      0.111      0.000      0.091      0.120      0.000     -0.112   1072.253   1001.072      0.100      0.000
      0.111      0.000      0.098      0.119      0.000     -0.121   1011.028   1001.011      0.100      0.000
      0.110      0.000      0.106      0.117      0.000     -0.129    949.509   1000.950      0.100      0.000
      0.109      0.000      0.114      0.116      0.000     -0.138    887.968   1000.888      0.100      0.000
      0.108      0.000      0.121      0.115      0.000     -0.146    825.478   1000.825      0.100      0.000
      0.108      0.000      0.129      0.114      0.000     -0.154    764.271   1000.764      0.100      0.000
      0.107      0.000      0.137      0.113      0.000     -0.163    700.418   1000.700      0.100      0.000
      0.106      0.000      0.145      0.112      0.000     -0.171    638.752   1000.639      0.100      0.000
      0.106      0.000      0.153      0.111      0.000     -0.180    578.130   1000.578      0.100      0.000
      0.105      0.000      0.161      0.110      0.000     -0.189    507.549   1000.508      0.100      0.000
      0.105      0.000      0.169      0.109      0.000     -0.197    460.301   1000.460      0.100      0.000
      0.104      0.000      0.177      0.109      0.000     -0.206    378.836   1000.379      0.100      0.000
      0.104      0.000      0.185      0.108      0.000     -0.215    322.822   1000.323      0.100      0.000
      0.104      0.000      0.193      0.107      0.000     -0.223    296.355   1000.296      0.100      0.000
      0.103      0.000      0.201      0.107      0.000     -0.235    118.813   1000.119      0.100      0.000
      0.103      0.000      0.209      0.106      0.000     -0.240    268.407   1000.268      0.100      0.000