<?xml version="1.0"?>
<VTKFile type="UnstructuredGrid" version="0.1" byte_order="LittleEndian" compressor="vtkZLibDataCompressor">
<UnstructuredGrid>
  <Piece NumberOfPoints="1800"        NumberOfCells="1"      >
    <Points>
      <DataArray type="Float32" NumberOfComponents="3" format="ascii" >
        0.11029E-01  0.00000E+00  0.24798E-02  0.71305E-02  0.00000E+00  0.94178E-02  0.67398E-02  0.00000E+00  0.16940E-01  0.74411E-02  0.00000E+00  0.23356E-01  0.75697E-02  0.00000E+00  0.29566E-01  0.72928E-02  0.00000E+00  0.36260E-01
        0.70399E-02  0.00000E+00  0.43095E-01  0.69346E-02  0.00000E+00  0.50009E-01  0.68312E-02  0.00000E+00  0.57057E-01  0.67310E-02  0.00000E+00  0.64207E-01  0.66563E-02  0.00000E+00  0.71441E-01  0.65880E-02  0.00000E+00  0.78749E-01
        0.65268E-02  0.00000E+00  0.86125E-01  0.64695E-02  0.00000E+00  0.93565E-01  0.64146E-02  0.00000E+00  0.10107E+00  0.63618E-02  0.00000E+00  0.10863E+00  0.63104E-02  0.00000E+00  0.11625E+00  0.62606E-02  0.00000E+00  0.12393E+00
        0.62121E-02  0.00000E+00  0.13166E+00  0.61653E-02  0.00000E+00  0.13946E+00  0.61204E-02  0.00000E+00  0.14731E+00  0.60763E-02  0.00000E+00  0.15521E+00  0.60361E-02  0.00000E+00  0.16317E+00  0.59959E-02  0.00000E+00  0.17117E+00
        0.59556E-02  0.00000E+00  0.17922E+00  0.59402E-02  0.00000E+00  0.18734E+00  0.58507E-02  0.00000E+00  0.19543E+00  0.59405E-02  0.00000E+00  0.20369E+00  0.58011E-02  0.00000E+00  0.21201E+00  0.55055E-02  0.00000E+00  0.21940E+00
        0.27224E-01  0.00000E+00  0.36005E-02  0.19267E-01  0.00000E+00  0.10299E-01  0.23242E-01  0.00000E+00  0.17015E-01  0.23274E-01  0.00000E+00  0.23326E-01  0.20753E-01  0.00000E+00  0.29533E-01  0.22106E-01  0.00000E+00  0.36577E-01
        0.20729E-01  0.00000E+00  0.43368E-01  0.20745E-01  0.00000E+00  0.50338E-01  0.20345E-01  0.00000E+00  0.57438E-01  0.20142E-01  0.00000E+00  0.64619E-01  0.19938E-01  0.00000E+00  0.71858E-01  0.19759E-01  0.00000E+00  0.79174E-01
        0.19596E-01  0.00000E+00  0.86550E-01  0.19441E-01  0.00000E+00  0.93986E-01  0.19292E-01  0.00000E+00  0.10148E+00  0.19149E-01  0.00000E+00  0.10904E+00  0.19009E-01  0.00000E+00  0.11665E+00  0.18873E-01  0.00000E+00  0.12432E+00
        0.18742E-01  0.00000E+00  0.13205E+00  0.18615E-01  0.00000E+00  0.13983E+00  0.18494E-01  0.00000E+00  0.14766E+00  0.18377E-01  0.00000E+00  0.15554E+00  0.18265E-01  0.00000E+00  0.16348E+00  0.18164E-01  0.00000E+00  0.17146E+00
        0.18049E-01  0.00000E+00  0.17946E+00  0.17987E-01  0.00000E+00  0.18761E+00  0.17839E-01  0.00000E+00  0.19557E+00  0.17846E-01  0.00000E+00  0.20387E+00  0.17668E-01  0.00000E+00  0.21221E+00  0.17532E-01  0.00000E+00  0.21934E+00
        0.42770E-01  0.00000E+00  0.36903E-02  0.34321E-01  0.00000E+00  0.10508E-01  0.39154E-01  0.00000E+00  0.16999E-01  0.38044E-01  0.00000E+00  0.23767E-01  0.35663E-01  0.00000E+00  0.30115E-01  0.36625E-01  0.00000E+00  0.37132E-01
        0.34892E-01  0.00000E+00  0.43956E-01  0.34793E-01  0.00000E+00  0.50992E-01  0.34150E-01  0.00000E+00  0.58134E-01  0.33829E-01  0.00000E+00  0.65349E-01  0.33490E-01  0.00000E+00  0.72633E-01  0.33197E-01  0.00000E+00  0.79987E-01
        0.32925E-01  0.00000E+00  0.87394E-01  0.32666E-01  0.00000E+00  0.94857E-01  0.32418E-01  0.00000E+00  0.10237E+00  0.32180E-01  0.00000E+00  0.10994E+00  0.31949E-01  0.00000E+00  0.11757E+00  0.31726E-01  0.00000E+00  0.12524E+00
        0.31510E-01  0.00000E+00  0.13296E+00  0.31303E-01  0.00000E+00  0.14073E+00  0.31103E-01  0.00000E+00  0.14855E+00  0.30913E-01  0.00000E+00  0.15641E+00  0.30730E-01  0.00000E+00  0.16433E+00  0.30558E-01  0.00000E+00  0.17228E+00
        0.30394E-01  0.00000E+00  0.18024E+00  0.30243E-01  0.00000E+00  0.18839E+00  0.30096E-01  0.00000E+00  0.19627E+00  0.29973E-01  0.00000E+00  0.20457E+00  0.29822E-01  0.00000E+00  0.21286E+00  0.29702E-01  0.00000E+00  0.21986E+00
        0.58335E-01  0.00000E+00  0.37922E-02  0.50381E-01  0.00000E+00  0.10413E-01  0.52701E-01  0.00000E+00  0.17749E-01  0.54268E-01  0.00000E+00  0.24621E-01  0.50100E-01  0.00000E+00  0.30661E-01  0.51248E-01  0.00000E+00  0.37677E-01
        0.49200E-01  0.00000E+00  0.44464E-01  0.48779E-01  0.00000E+00  0.51540E-01  0.48040E-01  0.00000E+00  0.58693E-01  0.47556E-01  0.00000E+00  0.65924E-01  0.47111E-01  0.00000E+00  0.73227E-01  0.46717E-01  0.00000E+00  0.80591E-01
        0.46352E-01  0.00000E+00  0.88008E-01  0.46006E-01  0.00000E+00  0.95478E-01  0.45674E-01  0.00000E+00  0.10300E+00  0.45355E-01  0.00000E+00  0.11057E+00  0.45045E-01  0.00000E+00  0.11818E+00  0.44745E-01  0.00000E+00  0.12585E+00
        0.44455E-01  0.00000E+00  0.13356E+00  0.44176E-01  0.00000E+00  0.14131E+00  0.43907E-01  0.00000E+00  0.14912E+00  0.43650E-01  0.00000E+00  0.15695E+00  0.43405E-01  0.00000E+00  0.16484E+00  0.43174E-01  0.00000E+00  0.17276E+00
        0.42957E-01  0.00000E+00  0.18068E+00  0.42751E-01  0.00000E+00  0.18878E+00  0.42577E-01  0.00000E+00  0.19660E+00  0.42389E-01  0.00000E+00  0.20485E+00  0.42287E-01  0.00000E+00  0.21301E+00  0.42137E-01  0.00000E+00  0.21998E+00
        0.72552E-01  0.00000E+00  0.40245E-02  0.65930E-01  0.00000E+00  0.10859E-01  0.66469E-01  0.00000E+00  0.18224E-01  0.69541E-01  0.00000E+00  0.24907E-01  0.65407E-01  0.00000E+00  0.31266E-01  0.65648E-01  0.00000E+00  0.38252E-01
        0.63575E-01  0.00000E+00  0.44950E-01  0.62813E-01  0.00000E+00  0.52010E-01  0.61947E-01  0.00000E+00  0.59115E-01  0.61312E-01  0.00000E+00  0.66306E-01  0.60749E-01  0.00000E+00  0.73587E-01  0.60247E-01  0.00000E+00  0.80929E-01
        0.59783E-01  0.00000E+00  0.88334E-01  0.59344E-01  0.00000E+00  0.95796E-01  0.58922E-01  0.00000E+00  0.10331E+00  0.58517E-01  0.00000E+00  0.11088E+00  0.58125E-01  0.00000E+00  0.11849E+00  0.57746E-01  0.00000E+00  0.12615E+00
        0.57381E-01  0.00000E+00  0.13386E+00  0.57029E-01  0.00000E+00  0.14161E+00  0.56691E-01  0.00000E+00  0.14940E+00  0.56369E-01  0.00000E+00  0.15722E+00  0.56061E-01  0.00000E+00  0.16510E+00  0.55774E-01  0.00000E+00  0.17300E+00
        0.55500E-01  0.00000E+00  0.18089E+00  0.55253E-01  0.00000E+00  0.18897E+00  0.55026E-01  0.00000E+00  0.19675E+00  0.54822E-01  0.00000E+00  0.20498E+00  0.54674E-01  0.00000E+00  0.21311E+00  0.54551E-01  0.00000E+00  0.22003E+00
        0.84972E-01  0.00000E+00  0.43992E-02  0.81666E-01  0.00000E+00  0.11863E-01  0.80504E-01  0.00000E+00  0.18837E-01  0.84901E-01  0.00000E+00  0.25228E-01  0.80646E-01  0.00000E+00  0.31746E-01  0.80121E-01  0.00000E+00  0.38637E-01
        0.78040E-01  0.00000E+00  0.45332E-01  0.76945E-01  0.00000E+00  0.52364E-01  0.75924E-01  0.00000E+00  0.59426E-01  0.75119E-01  0.00000E+00  0.66586E-01  0.74421E-01  0.00000E+00  0.73843E-01  0.73798E-01  0.00000E+00  0.81162E-01
        0.73225E-01  0.00000E+00  0.88550E-01  0.72686E-01  0.00000E+00  0.95999E-01  0.72174E-01  0.00000E+00  0.10350E+00  0.71684E-01  0.00000E+00  0.11106E+00  0.71212E-01  0.00000E+00  0.11866E+00  0.70760E-01  0.00000E+00  0.12631E+00
        0.70324E-01  0.00000E+00  0.13401E+00  0.69907E-01  0.00000E+00  0.14175E+00  0.69508E-01  0.00000E+00  0.14953E+00  0.69130E-01  0.00000E+00  0.15733E+00  0.68769E-01  0.00000E+00  0.16519E+00  0.68434E-01  0.00000E+00  0.17307E+00
        0.68120E-01  0.00000E+00  0.18094E+00  0.67834E-01  0.00000E+00  0.18899E+00  0.67583E-01  0.00000E+00  0.19672E+00  0.67358E-01  0.00000E+00  0.20493E+00  0.67214E-01  0.00000E+00  0.21300E+00  0.67055E-01  0.00000E+00  0.21988E+00
        0.95753E-01  0.00000E+00  0.44955E-02  0.98609E-01  0.00000E+00  0.12475E-01  0.95119E-01  0.00000E+00  0.18892E-01  0.99811E-01  0.00000E+00  0.25159E-01  0.96055E-01  0.00000E+00  0.31836E-01  0.94547E-01  0.00000E+00  0.38720E-01
        0.92567E-01  0.00000E+00  0.45492E-01  0.91149E-01  0.00000E+00  0.52500E-01  0.89962E-01  0.00000E+00  0.59556E-01  0.88993E-01  0.00000E+00  0.66699E-01  0.88154E-01  0.00000E+00  0.73937E-01  0.87407E-01  0.00000E+00  0.81238E-01
        0.86721E-01  0.00000E+00  0.88607E-01  0.86080E-01  0.00000E+00  0.96038E-01  0.85474E-01  0.00000E+00  0.10352E+00  0.84896E-01  0.00000E+00  0.11107E+00  0.84343E-01  0.00000E+00  0.11866E+00  0.83814E-01  0.00000E+00  0.12630E+00
        0.83308E-01  0.00000E+00  0.13398E+00  0.82825E-01  0.00000E+00  0.14170E+00  0.82364E-01  0.00000E+00  0.14947E+00  0.81929E-01  0.00000E+00  0.15725E+00  0.81516E-01  0.00000E+00  0.16510E+00  0.81134E-01  0.00000E+00  0.17296E+00
        0.80776E-01  0.00000E+00  0.18081E+00  0.80456E-01  0.00000E+00  0.18884E+00  0.80168E-01  0.00000E+00  0.19654E+00  0.79922E-01  0.00000E+00  0.20474E+00  0.79742E-01  0.00000E+00  0.21279E+00  0.79571E-01  0.00000E+00  0.21964E+00
        0.10739E+00  0.00000E+00  0.43669E-02  0.11290E+00  0.00000E+00  0.12029E-01  0.11133E+00  0.00000E+00  0.19134E-01  0.11461E+00  0.00000E+00  0.25351E-01  0.11128E+00  0.00000E+00  0.31872E-01  0.10898E+00  0.00000E+00  0.38760E-01
        0.10706E+00  0.00000E+00  0.45570E-01  0.10539E+00  0.00000E+00  0.52519E-01  0.10404E+00  0.00000E+00  0.59572E-01  0.10291E+00  0.00000E+00  0.66691E-01  0.10193E+00  0.00000E+00  0.73904E-01  0.10105E+00  0.00000E+00  0.81188E-01
        0.10025E+00  0.00000E+00  0.88539E-01  0.99504E-01  0.00000E+00  0.95954E-01  0.98799E-01  0.00000E+00  0.10343E+00  0.98131E-01  0.00000E+00  0.11095E+00  0.97496E-01  0.00000E+00  0.11853E+00  0.96890E-01  0.00000E+00  0.12616E+00
        0.96313E-01  0.00000E+00  0.13382E+00  0.95764E-01  0.00000E+00  0.14153E+00  0.95244E-01  0.00000E+00  0.14928E+00  0.94754E-01  0.00000E+00  0.15706E+00  0.94292E-01  0.00000E+00  0.16488E+00  0.93865E-01  0.00000E+00  0.17273E+00
        0.93468E-01  0.00000E+00  0.18056E+00  0.93114E-01  0.00000E+00  0.18857E+00  0.92797E-01  0.00000E+00  0.19625E+00  0.92532E-01  0.00000E+00  0.20444E+00  0.92340E-01  0.00000E+00  0.21246E+00  0.92138E-01  0.00000E+00  0.21927E+00
[...]
<PointData>
      <DataArray type="Float32" Name="Velocity vectors"  NumberOfComponents="3"  format="ascii" >
          0.32415E-01  0.00000E+00 -0.10333E-03  0.42349E-02  0.00000E+00 -0.81302E-02  0.10487E-01  0.00000E+00 -0.94193E-02  0.16900E-01  0.00000E+00 -0.25526E-01  0.20253E-01  0.00000E+00 -0.38035E-01  0.16330E-01  0.00000E+00 -0.47160E-01
          0.11975E-01  0.00000E+00 -0.57019E-01  0.11324E-01  0.00000E+00 -0.67029E-01  0.10694E-01  0.00000E+00 -0.76606E-01  0.93736E-02  0.00000E+00 -0.85747E-01  0.87175E-02  0.00000E+00 -0.94387E-01  0.81792E-02  0.00000E+00 -0.10295E+00
          0.77941E-02  0.00000E+00 -0.11131E+00  0.75054E-02  0.00000E+00 -0.11962E+00  0.72796E-02  0.00000E+00 -0.12795E+00  0.70979E-02  0.00000E+00 -0.13634E+00  0.69363E-02  0.00000E+00 -0.14481E+00  0.67807E-02  0.00000E+00 -0.15333E+00
          0.66223E-02  0.00000E+00 -0.16191E+00  0.64731E-02  0.00000E+00 -0.17049E+00  0.63104E-02  0.00000E+00 -0.17909E+00  0.61308E-02  0.00000E+00 -0.18766E+00  0.59899E-02  0.00000E+00 -0.19616E+00  0.57220E-02  0.00000E+00 -0.20475E+00
          0.56123E-02  0.00000E+00 -0.21303E+00  0.54362E-02  0.00000E+00 -0.22148E+00  0.46574E-02  0.00000E+00 -0.22999E+00  0.60853E-02  0.00000E+00 -0.23711E+00  0.39208E-02  0.00000E+00 -0.24572E+00  0.37714E-02  0.00000E+00 -0.25754E+00
          0.26965E-01  0.00000E+00  0.20377E-02 -0.58279E-02  0.00000E+00 -0.17204E-03  0.84031E-01  0.00000E+00 -0.33877E-01  0.78032E-01  0.00000E+00 -0.26817E-01 -0.10905E-01  0.00000E+00 -0.54462E-01  0.66728E-01  0.00000E+00 -0.57388E-01
          0.15430E-01  0.00000E+00 -0.68208E-01  0.31520E-01  0.00000E+00 -0.73555E-01  0.23480E-01  0.00000E+00 -0.81129E-01  0.23956E-01  0.00000E+00 -0.87145E-01  0.22801E-01  0.00000E+00 -0.94385E-01  0.22122E-01  0.00000E+00 -0.10171E+00
          0.21544E-01  0.00000E+00 -0.10913E+00  0.21193E-01  0.00000E+00 -0.11686E+00  0.20934E-01  0.00000E+00 -0.12472E+00  0.20681E-01  0.00000E+00 -0.13273E+00  0.20387E-01  0.00000E+00 -0.14087E+00  0.20069E-01  0.00000E+00 -0.14906E+00
          0.19690E-01  0.00000E+00 -0.15739E+00  0.19275E-01  0.00000E+00 -0.16568E+00  0.18837E-01  0.00000E+00 -0.17405E+00  0.18333E-01  0.00000E+00 -0.18252E+00  0.17903E-01  0.00000E+00 -0.19062E+00  0.17431E-01  0.00000E+00 -0.19937E+00
          0.16870E-01  0.00000E+00 -0.20744E+00  0.16710E-01  0.00000E+00 -0.21527E+00  0.15249E-01  0.00000E+00 -0.22537E+00  0.16309E-01  0.00000E+00 -0.23059E+00  0.14076E-01  0.00000E+00 -0.23939E+00  0.14720E-01  0.00000E+00 -0.25283E+00
          0.45920E-01  0.00000E+00 -0.39955E-02  0.21482E-01  0.00000E+00 -0.33326E-02  0.13841E+00  0.00000E+00 -0.44806E-01  0.93571E-01  0.00000E+00 -0.34566E-01  0.15160E-01  0.00000E+00 -0.58481E-01  0.89774E-01  0.00000E+00 -0.56647E-01
          0.28472E-01  0.00000E+00 -0.67600E-01  0.50045E-01  0.00000E+00 -0.73745E-01  0.37543E-01  0.00000E+00 -0.80832E-01  0.39671E-01  0.00000E+00 -0.86894E-01  0.38011E-01  0.00000E+00 -0.93674E-01  0.37576E-01  0.00000E+00 -0.10048E+00
          0.37085E-01  0.00000E+00 -0.10749E+00  0.36604E-01  0.00000E+00 -0.11481E+00  0.36124E-01  0.00000E+00 -0.12215E+00  0.35661E-01  0.00000E+00 -0.12964E+00  0.35155E-01  0.00000E+00 -0.13726E+00  0.34644E-01  0.00000E+00 -0.14494E+00
          0.34094E-01  0.00000E+00 -0.15285E+00  0.33509E-01  0.00000E+00 -0.16075E+00  0.32893E-01  0.00000E+00 -0.16883E+00  0.32260E-01  0.00000E+00 -0.17717E+00  0.31567E-01  0.00000E+00 -0.18503E+00  0.30887E-01  0.00000E+00 -0.19391E+00
          0.30075E-01  0.00000E+00 -0.20189E+00  0.29326E-01  0.00000E+00 -0.20956E+00  0.28384E-01  0.00000E+00 -0.22024E+00  0.27833E-01  0.00000E+00 -0.22512E+00  0.26434E-01  0.00000E+00 -0.23488E+00  0.25868E-01  0.00000E+00 -0.24828E+00
          0.10072E+00  0.00000E+00 -0.60188E-02  0.72291E-01  0.00000E+00 -0.19775E-01  0.11884E+00  0.00000E+00 -0.21365E-01  0.16368E+00  0.00000E+00 -0.92261E-02  0.22921E-01  0.00000E+00 -0.58309E-01  0.11236E+00  0.00000E+00 -0.57867E-01
          0.47535E-01  0.00000E+00 -0.72622E-01  0.61567E-01  0.00000E+00 -0.76675E-01  0.51723E-01  0.00000E+00 -0.82812E-01  0.52215E-01  0.00000E+00 -0.88144E-01  0.51115E-01  0.00000E+00 -0.93864E-01  0.50863E-01  0.00000E+00 -0.99969E-01
          0.50543E-01  0.00000E+00 -0.10630E+00  0.50236E-01  0.00000E+00 -0.11299E+00  0.49903E-01  0.00000E+00 -0.11992E+00  0.49563E-01  0.00000E+00 -0.12712E+00  0.49158E-01  0.00000E+00 -0.13455E+00  0.48711E-01  0.00000E+00 -0.14212E+00
          0.48198E-01  0.00000E+00 -0.14997E+00  0.47614E-01  0.00000E+00 -0.15783E+00  0.46950E-01  0.00000E+00 -0.16590E+00  0.46248E-01  0.00000E+00 -0.17426E+00  0.45427E-01  0.00000E+00 -0.18211E+00  0.44635E-01  0.00000E+00 -0.19108E+00
          0.43723E-01  0.00000E+00 -0.19917E+00  0.42761E-01  0.00000E+00 -0.20705E+00  0.41978E-01  0.00000E+00 -0.21804E+00  0.40771E-01  0.00000E+00 -0.22293E+00  0.40493E-01  0.00000E+00 -0.23357E+00  0.39642E-01  0.00000E+00 -0.24740E+00
          0.14466E+00  0.00000E+00 -0.64072E-02  0.10245E+00  0.00000E+00 -0.26823E-01  0.98881E-01  0.00000E+00 -0.19445E-01  0.20387E+00  0.00000E+00 -0.20479E-01  0.70789E-01  0.00000E+00 -0.47646E-01  0.12814E+00  0.00000E+00 -0.43791E-01
          0.67407E-01  0.00000E+00 -0.64915E-01  0.72975E-01  0.00000E+00 -0.68493E-01  0.65052E-01  0.00000E+00 -0.76448E-01  0.64966E-01  0.00000E+00 -0.83509E-01  0.64458E-01  0.00000E+00 -0.89953E-01  0.64532E-01  0.00000E+00 -0.97036E-01
          0.64536E-01  0.00000E+00 -0.10407E+00  0.64458E-01  0.00000E+00 -0.11129E+00  0.64260E-01  0.00000E+00 -0.11866E+00  0.63982E-01  0.00000E+00 -0.12613E+00  0.63597E-01  0.00000E+00 -0.13372E+00  0.63133E-01  0.00000E+00 -0.14137E+00
          0.62584E-01  0.00000E+00 -0.14924E+00  0.61960E-01  0.00000E+00 -0.15708E+00  0.61255E-01  0.00000E+00 -0.16511E+00  0.60491E-01  0.00000E+00 -0.17343E+00  0.59632E-01  0.00000E+00 -0.18127E+00  0.58755E-01  0.00000E+00 -0.19028E+00
          0.57754E-01  0.00000E+00 -0.19837E+00  0.56813E-01  0.00000E+00 -0.20635E+00  0.55787E-01  0.00000E+00 -0.21754E+00  0.54870E-01  0.00000E+00 -0.22250E+00  0.54004E-01  0.00000E+00 -0.23347E+00  0.53573E-01  0.00000E+00 -0.24716E+00
          0.16350E+00  0.00000E+00  0.24149E-02  0.13225E+00  0.00000E+00 -0.15675E-01  0.88477E-01  0.00000E+00 -0.56197E-02  0.24405E+00  0.00000E+00 -0.24508E-01  0.11450E+00  0.00000E+00 -0.42956E-01  0.14277E+00  0.00000E+00 -0.43382E-01
          0.92869E-01  0.00000E+00 -0.61211E-01  0.89687E-01  0.00000E+00 -0.65157E-01  0.82277E-01  0.00000E+00 -0.74010E-01  0.80579E-01  0.00000E+00 -0.81629E-01  0.79761E-01  0.00000E+00 -0.88325E-01  0.79525E-01  0.00000E+00 -0.95766E-01
          0.79304E-01  0.00000E+00 -0.10299E+00  0.79065E-01  0.00000E+00 -0.11034E+00  0.78727E-01  0.00000E+00 -0.11783E+00  0.78327E-01  0.00000E+00 -0.12538E+00  0.77851E-01  0.00000E+00 -0.13304E+00  0.77319E-01  0.00000E+00 -0.14076E+00
          0.76729E-01  0.00000E+00 -0.14868E+00  0.76080E-01  0.00000E+00 -0.15656E+00  0.75356E-01  0.00000E+00 -0.16466E+00  0.74576E-01  0.00000E+00 -0.17302E+00  0.73706E-01  0.00000E+00 -0.18090E+00  0.72829E-01  0.00000E+00 -0.19001E+00
          0.71849E-01  0.00000E+00 -0.19813E+00  0.70909E-01  0.00000E+00 -0.20623E+00  0.69983E-01  0.00000E+00 -0.21762E+00  0.69028E-01  0.00000E+00 -0.22248E+00  0.68553E-01  0.00000E+00 -0.23375E+00  0.67857E-01  0.00000E+00 -0.24772E+00
          0.13455E+00  0.00000E+00  0.28593E-02  0.21155E+00  0.00000E+00 -0.40317E-03  0.90411E-01  0.00000E+00 -0.20773E-01  0.26459E+00  0.00000E+00 -0.42439E-01  0.16100E+00  0.00000E+00 -0.51280E-01  0.15024E+00  0.00000E+00 -0.51968E-01
          0.11648E+00  0.00000E+00 -0.62755E-01  0.10491E+00  0.00000E+00 -0.66972E-01  0.97975E-01  0.00000E+00 -0.74559E-01  0.95497E-01  0.00000E+00 -0.81349E-01  0.94575E-01  0.00000E+00 -0.87839E-01  0.94324E-01  0.00000E+00 -0.95117E-01
          0.94150E-01  0.00000E+00 -0.10232E+00  0.93925E-01  0.00000E+00 -0.10977E+00  0.93573E-01  0.00000E+00 -0.11741E+00  0.93126E-01  0.00000E+00 -0.12514E+00  0.92587E-01  0.00000E+00 -0.13299E+00  0.91985E-01  0.00000E+00 -0.14088E+00
          0.91328E-01  0.00000E+00 -0.14895E+00  0.90630E-01  0.00000E+00 -0.15695E+00  0.89874E-01  0.00000E+00 -0.16515E+00  0.89083E-01  0.00000E+00 -0.17360E+00  0.88218E-01  0.00000E+00 -0.18154E+00  0.87352E-01  0.00000E+00 -0.19075E+00
          0.86395E-01  0.00000E+00 -0.19893E+00  0.85509E-01  0.00000E+00 -0.20711E+00  0.84553E-01  0.00000E+00 -0.21864E+00  0.83736E-01  0.00000E+00 -0.22348E+00  0.82931E-01  0.00000E+00 -0.23493E+00  0.82262E-01  0.00000E+00 -0.24876E+00
          0.13653E+00  0.00000E+00  0.32798E-03  0.20641E+00  0.00000E+00 -0.12659E-01  0.14770E+00  0.00000E+00  0.81742E-03  0.29652E+00  0.00000E+00 -0.25093E-01  0.18905E+00  0.00000E+00 -0.44815E-01  0.15345E+00  0.00000E+00 -0.46572E-01
          0.13396E+00  0.00000E+00 -0.57308E-01  0.11937E+00  0.00000E+00 -0.64233E-01  0.11320E+00  0.00000E+00 -0.71761E-01  0.11063E+00  0.00000E+00 -0.79861E-01  0.10976E+00  0.00000E+00 -0.87279E-01  0.10953E+00  0.00000E+00 -0.94937E-01
          0.10939E+00  0.00000E+00 -0.10261E+00  0.10912E+00  0.00000E+00 -0.11031E+00  0.10868E+00  0.00000E+00 -0.11810E+00  0.10812E+00  0.00000E+00 -0.12595E+00  0.10745E+00  0.00000E+00 -0.13386E+00  0.10673E+00  0.00000E+00 -0.14180E+00
          0.10597E+00  0.00000E+00 -0.14992E+00  0.10519E+00  0.00000E+00 -0.15795E+00  0.10438E+00  0.00000E+00 -0.16620E+00  0.10355E+00  0.00000E+00 -0.17468E+00  0.10269E+00  0.00000E+00 -0.18266E+00  0.10183E+00  0.00000E+00 -0.19193E+00
          0.10091E+00  0.00000E+00 -0.20010E+00  0.10008E+00  0.00000E+00 -0.20833E+00  0.99136E-01  0.00000E+00 -0.21995E+00  0.98369E-01  0.00000E+00 -0.22464E+00  0.97651E-01  0.00000E+00 -0.23624E+00  0.96853E-01  0.00000E+00 -0.25020E+00
          0.15871E+00  0.00000E+00 -0.17204E-02  0.17502E+00  0.00000E+00 -0.14246E-01  0.25049E+00  0.00000E+00 -0.32023E-01  0.26769E+00  0.00000E+00 -0.20526E-01  0.21724E+00  0.00000E+00 -0.23953E-01  0.16790E+00  0.00000E+00 -0.37764E-01
          0.15621E+00  0.00000E+00 -0.45146E-01  0.13874E+00  0.00000E+00 -0.58548E-01  0.13236E+00  0.00000E+00 -0.67799E-01  0.12859E+00  0.00000E+00 -0.77175E-01  0.12690E+00  0.00000E+00 -0.86159E-01  0.12608E+00  0.00000E+00 -0.94515E-01
          0.12548E+00  0.00000E+00 -0.10276E+00  0.12487E+00  0.00000E+00 -0.11086E+00  0.12418E+00  0.00000E+00 -0.11888E+00  0.12342E+00  0.00000E+00 -0.12692E+00  0.12258E+00  0.00000E+00 -0.13495E+00  0.12173E+00  0.00000E+00 -0.14300E+00
          0.12086E+00  0.00000E+00 -0.15121E+00  0.12001E+00  0.00000E+00 -0.15932E+00  0.11916E+00  0.00000E+00 -0.16765E+00  0.11832E+00  0.00000E+00 -0.17619E+00  0.11746E+00  0.00000E+00 -0.18423E+00  0.11662E+00  0.00000E+00 -0.19359E+00
          0.11574E+00  0.00000E+00 -0.20180E+00  0.11495E+00  0.00000E+00 -0.21008E+00  0.11401E+00  0.00000E+00 -0.22179E+00  0.11330E+00  0.00000E+00 -0.22643E+00  0.11241E+00  0.00000E+00 -0.23818E+00  0.11155E+00  0.00000E+00 -0.25202E+00
          0.19359E+00  0.00000E+00 -0.37838E-02  0.19387E+00  0.00000E+00 -0.74475E-02  0.29353E+00  0.00000E+00 -0.41936E-01  0.23817E+00  0.00000E+00 -0.37028E-01  0.25675E+00  0.00000E+00 -0.29608E-01  0.19629E+00  0.00000E+00 -0.47235E-01
          0.18506E+00  0.00000E+00 -0.50321E-01  0.16383E+00  0.00000E+00 -0.63494E-01  0.15457E+00  0.00000E+00 -0.71929E-01  0.14875E+00  0.00000E+00 -0.80559E-01  0.14543E+00  0.00000E+00 -0.89363E-01  0.14350E+00  0.00000E+00 -0.97350E-01
          0.14215E+00  0.00000E+00 -0.10534E+00  0.14101E+00  0.00000E+00 -0.11329E+00  0.13994E+00  0.00000E+00 -0.12113E+00  0.13889E+00  0.00000E+00 -0.12906E+00  0.13785E+00  0.00000E+00 -0.13701E+00  0.13683E+00  0.00000E+00 -0.14499E+00
          0.13583E+00  0.00000E+00 -0.15317E+00  0.13489E+00  0.00000E+00 -0.16125E+00  0.13398E+00  0.00000E+00 -0.16959E+00  0.13311E+00  0.00000E+00 -0.17812E+00  0.13225E+00  0.00000E+00 -0.18617E+00  0.13141E+00  0.00000E+00 -0.19557E+00
          0.13056E+00  0.00000E+00 -0.20374E+00  0.12980E+00  0.00000E+00 -0.21207E+00  0.12885E+00  0.00000E+00 -0.22384E+00  0.12819E+00  0.00000E+00 -0.22833E+00  0.12728E+00  0.00000E+00 -0.24019E+00  0.12635E+00  0.00000E+00 -0.25408E+00
          0.20626E+00  0.00000E+00 -0.56883E-02  0.23652E+00  0.00000E+00 -0.13167E-01  0.31387E+00  0.00000E+00 -0.36948E-01  0.24133E+00  0.00000E+00 -0.45631E-01  0.28159E+00  0.00000E+00 -0.36896E-01  0.21403E+00  0.00000E+00 -0.61849E-01
          0.20728E+00  0.00000E+00 -0.57204E-01  0.18412E+00  0.00000E+00 -0.68825E-01  0.17388E+00  0.00000E+00 -0.76157E-01  0.16705E+00  0.00000E+00 -0.83789E-01  0.16268E+00  0.00000E+00 -0.92219E-01  0.16006E+00  0.00000E+00 -0.99950E-01
          0.15822E+00  0.00000E+00 -0.10773E+00  0.15673E+00  0.00000E+00 -0.11556E+00  0.15541E+00  0.00000E+00 -0.12331E+00  0.15418E+00  0.00000E+00 -0.13116E+00  0.15301E+00  0.00000E+00 -0.13907E+00  0.15189E+00  0.00000E+00 -0.14703E+00
          0.15083E+00  0.00000E+00 -0.15520E+00  0.14985E+00  0.00000E+00 -0.16328E+00  0.14891E+00  0.00000E+00 -0.17165E+00  0.14805E+00  0.00000E+00 -0.18021E+00  0.14721E+00  0.00000E+00 -0.18828E+00  0.14640E+00  0.00000E+00 -0.19775E+00
          0.14558E+00  0.00000E+00 -0.20593E+00  0.14486E+00  0.00000E+00 -0.21430E+00  0.14390E+00  0.00000E+00 -0.22616E+00  0.14327E+00  0.00000E+00 -0.23056E+00  0.14227E+00  0.00000E+00 -0.24259E+00  0.14126E+00  0.00000E+00 -0.25638E+00
          0.23865E+00  0.00000E+00 -0.84110E-02  0.27809E+00  0.00000E+00 -0.18163E-01  0.33286E+00  0.00000E+00 -0.32072E-01  0.25747E+00  0.00000E+00 -0.47713E-01  0.30417E+00  0.00000E+00 -0.37161E-01  0.23434E+00  0.00000E+00 -0.65878E-01
          0.22845E+00  0.00000E+00 -0.61210E-01  0.20412E+00  0.00000E+00 -0.73807E-01  0.19314E+00  0.00000E+00 -0.80785E-01  0.18548E+00  0.00000E+00 -0.87837E-01  0.18005E+00  0.00000E+00 -0.95956E-01  0.17672E+00  0.00000E+00 -0.10338E+00
          0.17434E+00  0.00000E+00 -0.11087E+00  0.17246E+00  0.00000E+00 -0.11849E+00  0.17089E+00  0.00000E+00 -0.12605E+00  0.16949E+00  0.00000E+00 -0.13376E+00  0.16819E+00  0.00000E+00 -0.14156E+00  0.16700E+00  0.00000E+00 -0.14944E+00
          0.16588E+00  0.00000E+00 -0.15756E+00  0.16486E+00  0.00000E+00 -0.16561E+00  0.16391E+00  0.00000E+00 -0.17398E+00  0.16304E+00  0.00000E+00 -0.18253E+00  0.16222E+00  0.00000E+00 -0.19061E+00  0.16143E+00  0.00000E+00 -0.20012E+00
          0.16064E+00  0.00000E+00 -0.20826E+00  0.15995E+00  0.00000E+00 -0.21668E+00  0.15897E+00  0.00000E+00 -0.22859E+00  0.15838E+00  0.00000E+00 -0.23285E+00  0.15732E+00  0.00000E+00 -0.24503E+00  0.15627E+00  0.00000E+00 -0.25882E+00
          0.27837E+00  0.00000E+00 -0.70486E-02  0.31463E+00  0.00000E+00 -0.17891E-01  0.35594E+00  0.00000E+00 -0.28528E-01  0.27836E+00  0.00000E+00 -0.47770E-01  0.32757E+00  0.00000E+00 -0.36473E-01  0.25721E+00  0.00000E+00 -0.68060E-01
          0.24883E+00  0.00000E+00 -0.63613E-01  0.22190E+00  0.00000E+00 -0.76960E-01  0.21031E+00  0.00000E+00 -0.83487E-01  0.20216E+00  0.00000E+00 -0.90445E-01  0.19609E+00  0.00000E+00 -0.98375E-01  0.19241E+00  0.00000E+00 -0.10567E+00
          0.18975E+00  0.00000E+00 -0.11309E+00  0.18769E+00  0.00000E+00 -0.12067E+00  0.18602E+00  0.00000E+00 -0.12822E+00  0.18455E+00  0.00000E+00 -0.13592E+00  0.18323E+00  0.00000E+00 -0.14372E+00  0.18203E+00  0.00000E+00 -0.15162E+00
          0.18091E+00  0.00000E+00 -0.15975E+00  0.17992E+00  0.00000E+00 -0.16783E+00  0.17898E+00  0.00000E+00 -0.17624E+00  0.17814E+00  0.00000E+00 -0.18482E+00  0.17737E+00  0.00000E+00 -0.19294E+00  0.17661E+00  0.00000E+00 -0.20253E+00
          0.17587E+00  0.00000E+00 -0.21066E+00  0.17521E+00  0.00000E+00 -0.21915E+00  0.17422E+00  0.00000E+00 -0.23116E+00  0.17366E+00  0.00000E+00 -0.23529E+00  0.17252E+00  0.00000E+00 -0.24767E+00  0.17142E+00  0.00000E+00 -0.26140E+00
          0.31760E+00  0.00000E+00 -0.59086E-02  0.34767E+00  0.00000E+00 -0.16312E-01  0.38111E+00  0.00000E+00 -0.26092E-01  0.30282E+00  0.00000E+00 -0.46531E-01  0.34990E+00  0.00000E+00 -0.34972E-01  0.28209E+00  0.00000E+00 -0.67712E-01
          0.27020E+00  0.00000E+00 -0.63282E-01  0.24084E+00  0.00000E+00 -0.77502E-01  0.22846E+00  0.00000E+00 -0.84539E-01  0.21950E+00  0.00000E+00 -0.91999E-01  0.21266E+00  0.00000E+00 -0.10013E+00  0.20855E+00  0.00000E+00 -0.10755E+00
          0.20552E+00  0.00000E+00 -0.11508E+00  0.20321E+00  0.00000E+00 -0.12270E+00  0.20138E+00  0.00000E+00 -0.13030E+00  0.19982E+00  0.00000E+00 -0.13804E+00  0.19844E+00  0.00000E+00 -0.14587E+00  0.19722E+00  0.00000E+00 -0.15381E+00
          0.19610E+00  0.00000E+00 -0.16198E+00  0.19512E+00  0.00000E+00 -0.17009E+00  0.19420E+00  0.00000E+00 -0.17856E+00  0.19338E+00  0.00000E+00 -0.18717E+00  0.19264E+00  0.00000E+00 -0.19534E+00  0.19190E+00  0.00000E+00 -0.20500E+00
          0.19120E+00  0.00000E+00 -0.21311E+00  0.19057E+00  0.00000E+00 -0.22167E+00  0.18956E+00  0.00000E+00 -0.23377E+00  0.18904E+00  0.00000E+00 -0.23775E+00  0.18782E+00  0.00000E+00 -0.25033E+00  0.18670E+00  0.00000E+00 -0.26404E+00
          0.35319E+00  0.00000E+00 -0.49036E-02  0.37810E+00  0.00000E+00 -0.14649E-01  0.40697E+00  0.00000E+00 -0.24681E-01  0.33000E+00  0.00000E+00 -0.44932E-01  0.37165E+00  0.00000E+00 -0.33499E-01  0.30812E+00  0.00000E+00 -0.67043E-01
          0.29270E+00  0.00000E+00 -0.62582E-01  0.26031E+00  0.00000E+00 -0.77537E-01  0.24677E+00  0.00000E+00 -0.84945E-01  0.23668E+00  0.00000E+00 -0.92688E-01  0.22902E+00  0.00000E+00 -0.10099E+00  0.22449E+00  0.00000E+00 -0.10861E+00
          0.22114E+00  0.00000E+00 -0.11631E+00  0.21864E+00  0.00000E+00 -0.12406E+00  0.21672E+00  0.00000E+00 -0.13181E+00  0.21511E+00  0.00000E+00 -0.13967E+00  0.21372E+00  0.00000E+00 -0.14762E+00  0.21251E+00  0.00000E+00 -0.15567E+00
          0.21142E+00  0.00000E+00 -0.16395E+00  0.21046E+00  0.00000E+00 -0.17214E+00  0.20958E+00  0.00000E+00 -0.18072E+00  0.20880E+00  0.00000E+00 -0.18940E+00  0.20810E+00  0.00000E+00 -0.19764E+00  0.20739E+00  0.00000E+00 -0.20742E+00
          0.20673E+00  0.00000E+00 -0.21553E+00  0.20613E+00  0.00000E+00 -0.22419E+00  0.20510E+00  0.00000E+00 -0.23641E+00  0.20462E+00  0.00000E+00 -0.24025E+00  0.20331E+00  0.00000E+00 -0.25308E+00  0.20217E+00  0.00000E+00 -0.26674E+00
          0.38530E+00  0.00000E+00 -0.41525E-02  0.40654E+00  0.00000E+00 -0.13029E-01  0.43245E+00  0.00000E+00 -0.23857E-01  0.35976E+00  0.00000E+00 -0.42739E-01  0.39216E+00  0.00000E+00 -0.32025E-01  0.33454E+00  0.00000E+00 -0.65648E-01
          0.31600E+00  0.00000E+00 -0.60989E-01  0.28067E+00  0.00000E+00 -0.76449E-01  0.26612E+00  0.00000E+00 -0.84331E-01  0.25482E+00  0.00000E+00 -0.92489E-01  0.24625E+00  0.00000E+00 -0.10119E+00  0.24120E+00  0.00000E+00 -0.10916E+00
          0.23742E+00  0.00000E+00 -0.11714E+00  0.23465E+00  0.00000E+00 -0.12512E+00  0.23255E+00  0.00000E+00 -0.13308E+00  0.23083E+00  0.00000E+00 -0.14112E+00  0.22939E+00  0.00000E+00 -0.14922E+00  0.22815E+00  0.00000E+00 -0.15742E+00
          0.22705E+00  0.00000E+00 -0.16582E+00  0.22610E+00  0.00000E+00 -0.17412E+00  0.22523E+00  0.00000E+00 -0.18283E+00  0.22447E+00  0.00000E+00 -0.19158E+00  0.22380E+00  0.00000E+00 -0.19992E+00  0.22309E+00  0.00000E+00 -0.20982E+00
          0.22246E+00  0.00000E+00 -0.21792E+00  0.22187E+00  0.00000E+00 -0.22671E+00  0.22081E+00  0.00000E+00 -0.23904E+00  0.22038E+00  0.00000E+00 -0.24272E+00  0.21897E+00  0.00000E+00 -0.25582E+00  0.21782E+00  0.00000E+00 -0.26945E+00
          0.41455E+00  0.00000E+00 -0.34700E-02  0.43301E+00  0.00000E+00 -0.11301E-01  0.45660E+00  0.00000E+00 -0.23253E-01  0.39257E+00  0.00000E+00 -0.39510E-01  0.41134E+00  0.00000E+00 -0.30574E-01  0.36082E+00  0.00000E+00 -0.63780E-01