<?xml version="1.0"?>
<VTKFile type="UnstructuredGrid" version="0.1" byte_order="LittleEndian" compressor="vtkZLibDataCompressor">
<UnstructuredGrid>
  <Piece NumberOfPoints="1800"        NumberOfCells="1"      >
    <Points>
      <DataArray type="Float32" NumberOfComponents="3" format="ascii" >
        0.36013E-01  0.00000E+00  0.24866E-02  0.22714E-01  0.00000E+00  0.39099E-02  0.90813E-02  0.00000E+00  0.55696E-02  0.15262E-01  0.00000E+00  0.11447E-01  0.72584E-02  0.00000E+00  0.14920E-01  0.83215E-02  0.00000E+00  0.21737E-01
        0.78744E-02  0.00000E+00  0.27984E-01  0.89758E-02  0.00000E+00  0.34331E-01  0.82522E-02  0.00000E+00  0.40688E-01  0.89068E-02  0.00000E+00  0.46992E-01  0.88710E-02  0.00000E+00  0.53120E-01  0.99210E-02  0.00000E+00  0.58938E-01
        0.10109E-01  0.00000E+00  0.64398E-01  0.10573E-01  0.00000E+00  0.69631E-01  0.10563E-01  0.00000E+00  0.74701E-01  0.10606E-01  0.00000E+00  0.79753E-01  0.10452E-01  0.00000E+00  0.84791E-01  0.10305E-01  0.00000E+00  0.89872E-01
        0.10085E-01  0.00000E+00  0.94992E-01  0.98605E-02  0.00000E+00  0.10016E+00  0.96167E-02  0.00000E+00  0.10539E+00  0.93440E-02  0.00000E+00  0.11067E+00  0.90639E-02  0.00000E+00  0.11605E+00  0.88167E-02  0.00000E+00  0.12156E+00
        0.85082E-02  0.00000E+00  0.12710E+00  0.80386E-02  0.00000E+00  0.13264E+00  0.79726E-02  0.00000E+00  0.13861E+00  0.83600E-02  0.00000E+00  0.14503E+00  0.67039E-02  0.00000E+00  0.15057E+00  0.68646E-02  0.00000E+00  0.15481E+00
        0.48904E-01  0.00000E+00  0.37251E-02  0.29056E-01  0.00000E+00  0.10943E-01  0.43128E-01  0.00000E+00  0.11705E-01  0.35638E-01  0.00000E+00  0.17463E-01  0.22016E-01  0.00000E+00  0.18224E-01  0.32495E-01  0.00000E+00  0.25281E-01
        0.20750E-01  0.00000E+00  0.26860E-01  0.30643E-01  0.00000E+00  0.33325E-01  0.20571E-01  0.00000E+00  0.36718E-01  0.30505E-01  0.00000E+00  0.42382E-01  0.20893E-01  0.00000E+00  0.46977E-01  0.30579E-01  0.00000E+00  0.51915E-01
        0.22359E-01  0.00000E+00  0.57416E-01  0.30569E-01  0.00000E+00  0.62319E-01  0.25608E-01  0.00000E+00  0.68175E-01  0.29219E-01  0.00000E+00  0.73771E-01  0.27574E-01  0.00000E+00  0.79507E-01  0.27968E-01  0.00000E+00  0.85392E-01
        0.27467E-01  0.00000E+00  0.91185E-01  0.27188E-01  0.00000E+00  0.97036E-01  0.26792E-01  0.00000E+00  0.10294E+00  0.26389E-01  0.00000E+00  0.10885E+00  0.25944E-01  0.00000E+00  0.11464E+00  0.25509E-01  0.00000E+00  0.12064E+00
        0.24963E-01  0.00000E+00  0.12683E+00  0.24794E-01  0.00000E+00  0.13237E+00  0.23622E-01  0.00000E+00  0.13824E+00  0.24127E-01  0.00000E+00  0.14570E+00  0.22589E-01  0.00000E+00  0.15049E+00  0.22870E-01  0.00000E+00  0.15486E+00
        0.65740E-01  0.00000E+00  0.34523E-02  0.56486E-01  0.00000E+00  0.97824E-02  0.71046E-01  0.00000E+00  0.11754E-01  0.61363E-01  0.00000E+00  0.17185E-01  0.48454E-01  0.00000E+00  0.19634E-01  0.57262E-01  0.00000E+00  0.25048E-01
        0.43634E-01  0.00000E+00  0.27692E-01  0.53401E-01  0.00000E+00  0.33083E-01  0.41680E-01  0.00000E+00  0.36634E-01  0.51696E-01  0.00000E+00  0.42057E-01  0.40865E-01  0.00000E+00  0.46166E-01  0.50797E-01  0.00000E+00  0.51604E-01
        0.40641E-01  0.00000E+00  0.56237E-01  0.49313E-01  0.00000E+00  0.61621E-01  0.42736E-01  0.00000E+00  0.67024E-01  0.46833E-01  0.00000E+00  0.72864E-01  0.44676E-01  0.00000E+00  0.78645E-01  0.45214E-01  0.00000E+00  0.84624E-01
        0.44524E-01  0.00000E+00  0.90550E-01  0.44231E-01  0.00000E+00  0.96488E-01  0.43746E-01  0.00000E+00  0.10250E+00  0.43325E-01  0.00000E+00  0.10853E+00  0.42768E-01  0.00000E+00  0.11443E+00  0.42329E-01  0.00000E+00  0.12051E+00
        0.41679E-01  0.00000E+00  0.12679E+00  0.41212E-01  0.00000E+00  0.13244E+00  0.40600E-01  0.00000E+00  0.13846E+00  0.40233E-01  0.00000E+00  0.14581E+00  0.39216E-01  0.00000E+00  0.15042E+00  0.39216E-01  0.00000E+00  0.15499E+00
        0.95225E-01  0.00000E+00  0.33791E-02  0.79693E-01  0.00000E+00  0.61942E-02  0.88155E-01  0.00000E+00  0.11191E-01  0.85462E-01  0.00000E+00  0.19312E-01  0.73357E-01  0.00000E+00  0.20206E-01  0.80472E-01  0.00000E+00  0.26938E-01
        0.67387E-01  0.00000E+00  0.28242E-01  0.76115E-01  0.00000E+00  0.35039E-01  0.63771E-01  0.00000E+00  0.37094E-01  0.72858E-01  0.00000E+00  0.43504E-01  0.61515E-01  0.00000E+00  0.46478E-01  0.70709E-01  0.00000E+00  0.52798E-01
        0.60190E-01  0.00000E+00  0.56675E-01  0.68282E-01  0.00000E+00  0.62740E-01  0.60506E-01  0.00000E+00  0.67366E-01  0.64860E-01  0.00000E+00  0.73320E-01  0.61868E-01  0.00000E+00  0.78945E-01  0.62459E-01  0.00000E+00  0.84917E-01
        0.61624E-01  0.00000E+00  0.90825E-01  0.61298E-01  0.00000E+00  0.96772E-01  0.60678E-01  0.00000E+00  0.10277E+00  0.60259E-01  0.00000E+00  0.10880E+00  0.59594E-01  0.00000E+00  0.11468E+00  0.59092E-01  0.00000E+00  0.12078E+00
        0.58476E-01  0.00000E+00  0.12702E+00  0.57859E-01  0.00000E+00  0.13260E+00  0.57444E-01  0.00000E+00  0.13863E+00  0.56783E-01  0.00000E+00  0.14595E+00  0.56902E-01  0.00000E+00  0.15047E+00  0.56516E-01  0.00000E+00  0.15494E+00
        0.11975E+00  0.00000E+00  0.34037E-02  0.10748E+00  0.00000E+00  0.70257E-02  0.99496E-01  0.00000E+00  0.13508E-01  0.10962E+00  0.00000E+00  0.18464E-01  0.97273E-01  0.00000E+00  0.22309E-01  0.10676E+00  0.00000E+00  0.27175E-01
        0.91381E-01  0.00000E+00  0.29164E-01  0.99419E-01  0.00000E+00  0.35309E-01  0.86750E-01  0.00000E+00  0.37941E-01  0.94305E-01  0.00000E+00  0.44323E-01  0.82613E-01  0.00000E+00  0.47152E-01  0.90313E-01  0.00000E+00  0.53714E-01
        0.79852E-01  0.00000E+00  0.57390E-01  0.86657E-01  0.00000E+00  0.63968E-01  0.79047E-01  0.00000E+00  0.68286E-01  0.82384E-01  0.00000E+00  0.74606E-01  0.79389E-01  0.00000E+00  0.80091E-01  0.79686E-01  0.00000E+00  0.86026E-01
        0.78734E-01  0.00000E+00  0.91880E-01  0.78355E-01  0.00000E+00  0.97784E-01  0.77682E-01  0.00000E+00  0.10373E+00  0.77205E-01  0.00000E+00  0.10968E+00  0.76548E-01  0.00000E+00  0.11549E+00  0.75986E-01  0.00000E+00  0.12152E+00
        0.75405E-01  0.00000E+00  0.12766E+00  0.74902E-01  0.00000E+00  0.13312E+00  0.74342E-01  0.00000E+00  0.13910E+00  0.73999E-01  0.00000E+00  0.14632E+00  0.73458E-01  0.00000E+00  0.15066E+00  0.73451E-01  0.00000E+00  0.15518E+00
        0.13831E+00  0.00000E+00  0.33652E-02  0.12987E+00  0.00000E+00  0.92499E-02  0.11771E+00  0.00000E+00  0.12799E-01  0.13753E+00  0.00000E+00  0.16081E-01  0.12547E+00  0.00000E+00  0.18840E-01  0.13304E+00  0.00000E+00  0.24632E-01
        0.11873E+00  0.00000E+00  0.25350E-01  0.11986E+00  0.00000E+00  0.33892E-01  0.10998E+00  0.00000E+00  0.36237E-01  0.11410E+00  0.00000E+00  0.44246E-01  0.10356E+00  0.00000E+00  0.46365E-01  0.10748E+00  0.00000E+00  0.54568E-01
        0.98757E-01  0.00000E+00  0.58444E-01  0.10383E+00  0.00000E+00  0.65503E-01  0.97460E-01  0.00000E+00  0.70065E-01  0.99496E-01  0.00000E+00  0.76426E-01  0.96971E-01  0.00000E+00  0.81826E-01  0.97044E-01  0.00000E+00  0.87818E-01
        0.95981E-01  0.00000E+00  0.93574E-01  0.95683E-01  0.00000E+00  0.99410E-01  0.94864E-01  0.00000E+00  0.10529E+00  0.94481E-01  0.00000E+00  0.11115E+00  0.93794E-01  0.00000E+00  0.11685E+00  0.93201E-01  0.00000E+00  0.12282E+00
        0.92738E-01  0.00000E+00  0.12886E+00  0.92131E-01  0.00000E+00  0.13412E+00  0.91657E-01  0.00000E+00  0.14012E+00  0.91385E-01  0.00000E+00  0.14732E+00  0.91253E-01  0.00000E+00  0.15137E+00  0.91048E-01  0.00000E+00  0.15576E+00
        0.15554E+00  0.00000E+00  0.32803E-02  0.16445E+00  0.00000E+00  0.85861E-02  0.14704E+00  0.00000E+00  0.98824E-02  0.16185E+00  0.00000E+00  0.16531E-01  0.14975E+00  0.00000E+00  0.17842E-01  0.15692E+00  0.00000E+00  0.24302E-01
        0.14531E+00  0.00000E+00  0.26076E-01  0.14045E+00  0.00000E+00  0.32983E-01  0.13001E+00  0.00000E+00  0.34143E-01  0.12804E+00  0.00000E+00  0.42210E-01  0.12587E+00  0.00000E+00  0.49581E-01  0.11784E+00  0.00000E+00  0.54076E-01
        0.12423E+00  0.00000E+00  0.61422E-01  0.11584E+00  0.00000E+00  0.65013E-01  0.11874E+00  0.00000E+00  0.71634E-01  0.11588E+00  0.00000E+00  0.76958E-01  0.11507E+00  0.00000E+00  0.82834E-01  0.11451E+00  0.00000E+00  0.88659E-01
        0.11359E+00  0.00000E+00  0.94408E-01  0.11331E+00  0.00000E+00  0.10022E+00  0.11246E+00  0.00000E+00  0.10606E+00  0.11214E+00  0.00000E+00  0.11186E+00  0.11150E+00  0.00000E+00  0.11752E+00  0.11088E+00  0.00000E+00  0.12346E+00
        0.11048E+00  0.00000E+00  0.12943E+00  0.11000E+00  0.00000E+00  0.13459E+00  0.10940E+00  0.00000E+00  0.14057E+00  0.10927E+00  0.00000E+00  0.14775E+00  0.10879E+00  0.00000E+00  0.15163E+00  0.10867E+00  0.00000E+00  0.15600E+00
        0.17535E+00  0.00000E+00  0.33581E-02  0.18548E+00  0.00000E+00  0.92303E-02  0.17574E+00  0.00000E+00  0.13336E-01  0.19442E+00  0.00000E+00  0.14883E-01  0.18348E+00  0.00000E+00  0.20602E-01  0.17161E+00  0.00000E+00  0.21465E-01
        0.16754E+00  0.00000E+00  0.29680E-01  0.15662E+00  0.00000E+00  0.33041E-01  0.15177E+00  0.00000E+00  0.39894E-01  0.14170E+00  0.00000E+00  0.41438E-01  0.14429E+00  0.00000E+00  0.49731E-01  0.13528E+00  0.00000E+00  0.52933E-01
        0.14177E+00  0.00000E+00  0.59870E-01  0.13464E+00  0.00000E+00  0.64369E-01  0.13664E+00  0.00000E+00  0.71164E-01  0.13401E+00  0.00000E+00  0.76521E-01  0.13286E+00  0.00000E+00  0.82284E-01  0.13236E+00  0.00000E+00  0.88108E-01
        0.13143E+00  0.00000E+00  0.93838E-01  0.13112E+00  0.00000E+00  0.99620E-01  0.13028E+00  0.00000E+00  0.10543E+00  0.12998E+00  0.00000E+00  0.11122E+00  0.12940E+00  0.00000E+00  0.11687E+00  0.12876E+00  0.00000E+00  0.12279E+00
        0.12846E+00  0.00000E+00  0.12875E+00  0.12796E+00  0.00000E+00  0.13388E+00  0.12734E+00  0.00000E+00  0.13990E+00  0.12730E+00  0.00000E+00  0.14705E+00  0.12689E+00  0.00000E+00  0.15089E+00  0.12666E+00  0.00000E+00  0.15529E+00
[...]
<PointData>
      <DataArray type="Float32" Name="Velocity vectors"  NumberOfComponents="3"  format="ascii" >
          0.80953E-01  0.00000E+00  0.60650E-03  0.60559E-01  0.00000E+00  0.94316E-03  0.21783E-01  0.00000E+00 -0.18992E-01  0.87863E-01  0.00000E+00 -0.30381E-01 -0.10614E-01  0.00000E+00 -0.67379E-01  0.74015E-02  0.00000E+00 -0.73164E-01
          0.22660E-02  0.00000E+00 -0.80534E-01  0.99813E-02  0.00000E+00 -0.84283E-01 -0.55646E-02  0.00000E+00 -0.86212E-01 -0.27501E-02  0.00000E+00 -0.84271E-01 -0.98910E-02  0.00000E+00 -0.80432E-01  0.12578E-02  0.00000E+00 -0.77228E-01
          0.30816E-03  0.00000E+00 -0.74104E-01  0.10236E-01  0.00000E+00 -0.72127E-01  0.12979E-01  0.00000E+00 -0.74081E-01  0.17984E-01  0.00000E+00 -0.78512E-01  0.19718E-01  0.00000E+00 -0.84572E-01  0.21351E-01  0.00000E+00 -0.90457E-01
          0.21186E-01  0.00000E+00 -0.96932E-01  0.21321E-01  0.00000E+00 -0.10373E+00  0.20770E-01  0.00000E+00 -0.11106E+00  0.19818E-01  0.00000E+00 -0.11872E+00  0.19089E-01  0.00000E+00 -0.12596E+00  0.18149E-01  0.00000E+00 -0.13361E+00
          0.15136E-01  0.00000E+00 -0.14283E+00  0.12557E-01  0.00000E+00 -0.15123E+00  0.14155E-01  0.00000E+00 -0.15630E+00  0.10765E-01  0.00000E+00 -0.16340E+00  0.35321E-02  0.00000E+00 -0.17450E+00  0.50340E-02  0.00000E+00 -0.18246E+00
          0.92193E-01  0.00000E+00 -0.25061E-02  0.72430E-01  0.00000E+00 -0.46667E-02  0.78917E-01  0.00000E+00 -0.10581E-01  0.82175E-01  0.00000E+00 -0.13574E-01  0.37439E-01  0.00000E+00 -0.25503E-01  0.38686E-01  0.00000E+00 -0.30054E-01
          0.15765E-01  0.00000E+00 -0.46364E-01  0.24535E-01  0.00000E+00 -0.43052E-01  0.92415E-02  0.00000E+00 -0.60616E-01  0.15542E-01  0.00000E+00 -0.55208E-01 -0.73138E-03  0.00000E+00 -0.70252E-01  0.14265E-01  0.00000E+00 -0.72594E-01
         -0.19213E-01  0.00000E+00 -0.83709E-01  0.43003E-01  0.00000E+00 -0.96169E-01 -0.26879E-01  0.00000E+00 -0.10087E+00  0.59030E-01  0.00000E+00 -0.11695E+00  0.22397E-01  0.00000E+00 -0.12066E+00  0.46455E-01  0.00000E+00 -0.12573E+00
          0.40488E-01  0.00000E+00 -0.13196E+00  0.42717E-01  0.00000E+00 -0.13630E+00  0.41477E-01  0.00000E+00 -0.14100E+00  0.40490E-01  0.00000E+00 -0.14650E+00  0.38666E-01  0.00000E+00 -0.15181E+00  0.37537E-01  0.00000E+00 -0.15461E+00
          0.34203E-01  0.00000E+00 -0.15989E+00  0.35569E-01  0.00000E+00 -0.16872E+00  0.27677E-01  0.00000E+00 -0.16816E+00  0.29058E-01  0.00000E+00 -0.17245E+00  0.23105E-01  0.00000E+00 -0.18561E+00  0.23491E-01  0.00000E+00 -0.18965E+00
          0.10058E+00  0.00000E+00 -0.14487E-02  0.97346E-01  0.00000E+00 -0.75502E-02  0.12402E+00  0.00000E+00 -0.15817E-01  0.11850E+00  0.00000E+00 -0.18971E-01  0.96871E-01  0.00000E+00 -0.21746E-01  0.84512E-01  0.00000E+00 -0.28529E-01
          0.51394E-01  0.00000E+00 -0.36554E-01  0.56125E-01  0.00000E+00 -0.45007E-01  0.36813E-01  0.00000E+00 -0.50285E-01  0.47738E-01  0.00000E+00 -0.58103E-01  0.33528E-01  0.00000E+00 -0.65146E-01  0.50816E-01  0.00000E+00 -0.75128E-01
          0.21787E-01  0.00000E+00 -0.84552E-01  0.78217E-01  0.00000E+00 -0.91711E-01 -0.31452E-02  0.00000E+00 -0.10888E+00  0.92226E-01  0.00000E+00 -0.12307E+00  0.37051E-01  0.00000E+00 -0.12792E+00  0.68929E-01  0.00000E+00 -0.13346E+00
          0.57928E-01  0.00000E+00 -0.14121E+00  0.61327E-01  0.00000E+00 -0.14557E+00  0.58748E-01  0.00000E+00 -0.15058E+00  0.58222E-01  0.00000E+00 -0.15655E+00  0.54936E-01  0.00000E+00 -0.16201E+00  0.54112E-01  0.00000E+00 -0.16508E+00
          0.50365E-01  0.00000E+00 -0.17088E+00  0.48944E-01  0.00000E+00 -0.17872E+00  0.45469E-01  0.00000E+00 -0.17761E+00  0.43796E-01  0.00000E+00 -0.18276E+00  0.40274E-01  0.00000E+00 -0.19380E+00  0.40559E-01  0.00000E+00 -0.19698E+00
          0.15617E+00  0.00000E+00  0.23231E-04  0.12673E+00  0.00000E+00 -0.78369E-02  0.13677E+00  0.00000E+00 -0.17569E-01  0.12858E+00  0.00000E+00 -0.22491E-01  0.11989E+00  0.00000E+00 -0.16577E-01  0.11830E+00  0.00000E+00 -0.25741E-01
          0.91588E-01  0.00000E+00 -0.34198E-01  0.92348E-01  0.00000E+00 -0.40850E-01  0.69538E-01  0.00000E+00 -0.49990E-01  0.81680E-01  0.00000E+00 -0.56362E-01  0.66125E-01  0.00000E+00 -0.66317E-01  0.88035E-01  0.00000E+00 -0.73593E-01
          0.61766E-01  0.00000E+00 -0.86407E-01  0.11543E+00  0.00000E+00 -0.89957E-01  0.36935E-01  0.00000E+00 -0.11151E+00  0.12841E+00  0.00000E+00 -0.12158E+00  0.59676E-01  0.00000E+00 -0.13469E+00  0.94555E-01  0.00000E+00 -0.13810E+00
          0.79583E-01  0.00000E+00 -0.14710E+00  0.83008E-01  0.00000E+00 -0.15191E+00  0.78016E-01  0.00000E+00 -0.15716E+00  0.78141E-01  0.00000E+00 -0.16341E+00  0.73449E-01  0.00000E+00 -0.16916E+00  0.71729E-01  0.00000E+00 -0.17237E+00
          0.68304E-01  0.00000E+00 -0.17838E+00  0.64841E-01  0.00000E+00 -0.18636E+00  0.62470E-01  0.00000E+00 -0.18529E+00  0.59103E-01  0.00000E+00 -0.19059E+00  0.59779E-01  0.00000E+00 -0.20063E+00  0.58439E-01  0.00000E+00 -0.20339E+00
          0.18491E+00  0.00000E+00 -0.10062E-02  0.16897E+00  0.00000E+00 -0.84689E-02  0.14740E+00  0.00000E+00 -0.15514E-01  0.15663E+00  0.00000E+00 -0.25611E-01  0.13849E+00  0.00000E+00 -0.21350E-01  0.14870E+00  0.00000E+00 -0.34569E-01
          0.12359E+00  0.00000E+00 -0.34703E-01  0.13942E+00  0.00000E+00 -0.45781E-01  0.11109E+00  0.00000E+00 -0.47125E-01  0.13362E+00  0.00000E+00 -0.61426E-01  0.10435E+00  0.00000E+00 -0.70499E-01  0.13191E+00  0.00000E+00 -0.84103E-01
          0.10215E+00  0.00000E+00 -0.93228E-01  0.15965E+00  0.00000E+00 -0.97888E-01  0.79468E-01  0.00000E+00 -0.12277E+00  0.16054E+00  0.00000E+00 -0.12286E+00  0.91075E-01  0.00000E+00 -0.14012E+00  0.11740E+00  0.00000E+00 -0.14238E+00
          0.10040E+00  0.00000E+00 -0.15048E+00  0.10290E+00  0.00000E+00 -0.15423E+00  0.96818E-01  0.00000E+00 -0.15891E+00  0.95680E-01  0.00000E+00 -0.16438E+00  0.90753E-01  0.00000E+00 -0.16914E+00  0.87691E-01  0.00000E+00 -0.17197E+00
          0.83942E-01  0.00000E+00 -0.17779E+00  0.81206E-01  0.00000E+00 -0.18482E+00  0.77786E-01  0.00000E+00 -0.18372E+00  0.75789E-01  0.00000E+00 -0.18894E+00  0.73976E-01  0.00000E+00 -0.19893E+00  0.74152E-01  0.00000E+00 -0.20164E+00
          0.20465E+00  0.00000E+00 -0.20384E-02  0.18824E+00  0.00000E+00 -0.10067E-01  0.17171E+00  0.00000E+00 -0.67985E-02  0.22277E+00  0.00000E+00 -0.33260E-01  0.19126E+00  0.00000E+00 -0.26304E-01  0.20312E+00  0.00000E+00 -0.47166E-01
          0.16546E+00  0.00000E+00 -0.38539E-01  0.17739E+00  0.00000E+00 -0.43670E-01  0.16095E+00  0.00000E+00 -0.56108E-01  0.18397E+00  0.00000E+00 -0.66695E-01  0.15133E+00  0.00000E+00 -0.83053E-01  0.17039E+00  0.00000E+00 -0.84504E-01
          0.13446E+00  0.00000E+00 -0.10543E+00  0.19654E+00  0.00000E+00 -0.99058E-01  0.11150E+00  0.00000E+00 -0.13359E+00  0.18070E+00  0.00000E+00 -0.12405E+00  0.11799E+00  0.00000E+00 -0.14121E+00  0.13540E+00  0.00000E+00 -0.14030E+00
          0.11501E+00  0.00000E+00 -0.14793E+00  0.11911E+00  0.00000E+00 -0.15025E+00  0.10936E+00  0.00000E+00 -0.15409E+00  0.11056E+00  0.00000E+00 -0.15841E+00  0.10497E+00  0.00000E+00 -0.16211E+00  0.10179E+00  0.00000E+00 -0.16426E+00
          0.99878E-01  0.00000E+00 -0.16971E+00  0.96071E-01  0.00000E+00 -0.17665E+00  0.93476E-01  0.00000E+00 -0.17461E+00  0.92345E-01  0.00000E+00 -0.17977E+00  0.92240E-01  0.00000E+00 -0.19044E+00  0.91663E-01  0.00000E+00 -0.19299E+00
          0.24990E+00  0.00000E+00 -0.35579E-02  0.27148E+00  0.00000E+00 -0.16972E-01  0.22876E+00  0.00000E+00 -0.22017E-01  0.25438E+00  0.00000E+00 -0.26302E-01  0.24231E+00  0.00000E+00 -0.28189E-01  0.25041E+00  0.00000E+00 -0.41710E-01
          0.22450E+00  0.00000E+00 -0.47557E-01  0.21041E+00  0.00000E+00 -0.61867E-01  0.18688E+00  0.00000E+00 -0.77779E-01  0.19759E+00  0.00000E+00 -0.74430E-01  0.19544E+00  0.00000E+00 -0.65750E-01  0.16867E+00  0.00000E+00 -0.90125E-01
          0.22359E+00  0.00000E+00 -0.85502E-01  0.14517E+00  0.00000E+00 -0.11863E+00  0.22233E+00  0.00000E+00 -0.11336E+00  0.15167E+00  0.00000E+00 -0.13493E+00  0.14660E+00  0.00000E+00 -0.13011E+00  0.14136E+00  0.00000E+00 -0.13570E+00
          0.12744E+00  0.00000E+00 -0.14114E+00  0.13165E+00  0.00000E+00 -0.14246E+00  0.12074E+00  0.00000E+00 -0.14697E+00  0.12349E+00  0.00000E+00 -0.15106E+00  0.11860E+00  0.00000E+00 -0.15433E+00  0.11537E+00  0.00000E+00 -0.15645E+00
          0.11528E+00  0.00000E+00 -0.16187E+00  0.11353E+00  0.00000E+00 -0.16862E+00  0.11042E+00  0.00000E+00 -0.16610E+00  0.11179E+00  0.00000E+00 -0.17127E+00  0.11088E+00  0.00000E+00 -0.18287E+00  0.11079E+00  0.00000E+00 -0.18536E+00
          0.29045E+00  0.00000E+00 -0.13337E-02  0.30304E+00  0.00000E+00 -0.12776E-01  0.28567E+00  0.00000E+00 -0.16977E-01  0.31959E+00  0.00000E+00 -0.30146E-01  0.30445E+00  0.00000E+00 -0.34736E-01  0.27264E+00  0.00000E+00 -0.34560E-01
          0.25933E+00  0.00000E+00 -0.49130E-01  0.22649E+00  0.00000E+00 -0.55310E-01  0.20996E+00  0.00000E+00 -0.69088E-01  0.18826E+00  0.00000E+00 -0.66982E-01  0.22449E+00  0.00000E+00 -0.68942E-01  0.19450E+00  0.00000E+00 -0.93507E-01
          0.25399E+00  0.00000E+00 -0.89329E-01  0.18548E+00  0.00000E+00 -0.11623E+00  0.23824E+00  0.00000E+00 -0.10717E+00  0.17674E+00  0.00000E+00 -0.12376E+00  0.16117E+00  0.00000E+00 -0.12358E+00  0.15944E+00  0.00000E+00 -0.12952E+00
          0.14366E+00  0.00000E+00 -0.13543E+00  0.14720E+00  0.00000E+00 -0.13763E+00  0.13674E+00  0.00000E+00 -0.14264E+00  0.13932E+00  0.00000E+00 -0.14748E+00  0.13570E+00  0.00000E+00 -0.15128E+00  0.13223E+00  0.00000E+00 -0.15412E+00
          0.13371E+00  0.00000E+00 -0.16023E+00  0.13221E+00  0.00000E+00 -0.16742E+00  0.12942E+00  0.00000E+00 -0.16516E+00  0.13272E+00  0.00000E+00 -0.17089E+00  0.13239E+00  0.00000E+00 -0.18259E+00  0.13199E+00  0.00000E+00 -0.18462E+00
          0.32529E+00  0.00000E+00 -0.22906E-02  0.34893E+00  0.00000E+00 -0.15670E-01  0.35527E+00  0.00000E+00 -0.93231E-02  0.36959E+00  0.00000E+00 -0.20235E-01  0.33366E+00  0.00000E+00 -0.41231E-01  0.32095E+00  0.00000E+00 -0.33879E-01
          0.29468E+00  0.00000E+00 -0.54542E-01  0.28426E+00  0.00000E+00 -0.59469E-01  0.26331E+00  0.00000E+00 -0.71243E-01  0.24804E+00  0.00000E+00 -0.83161E-01  0.26600E+00  0.00000E+00 -0.81579E-01  0.22524E+00  0.00000E+00 -0.11762E+00
          0.26426E+00  0.00000E+00 -0.11016E+00  0.21073E+00  0.00000E+00 -0.11556E+00  0.21645E+00  0.00000E+00 -0.10359E+00  0.21996E+00  0.00000E+00 -0.10355E+00  0.17252E+00  0.00000E+00 -0.11555E+00  0.18148E+00  0.00000E+00 -0.11517E+00
          0.15965E+00  0.00000E+00 -0.12358E+00  0.16707E+00  0.00000E+00 -0.12708E+00  0.15479E+00  0.00000E+00 -0.13176E+00  0.15997E+00  0.00000E+00 -0.13727E+00  0.15608E+00  0.00000E+00 -0.14169E+00  0.15298E+00  0.00000E+00 -0.14481E+00
          0.15551E+00  0.00000E+00 -0.15115E+00  0.15406E+00  0.00000E+00 -0.15917E+00  0.15076E+00  0.00000E+00 -0.15716E+00  0.15435E+00  0.00000E+00 -0.16218E+00  0.15332E+00  0.00000E+00 -0.17511E+00  0.15309E+00  0.00000E+00 -0.17806E+00
          0.36713E+00  0.00000E+00 -0.10256E-02  0.37613E+00  0.00000E+00 -0.11142E-01  0.40932E+00  0.00000E+00 -0.14003E-01  0.38294E+00  0.00000E+00 -0.24121E-01  0.39617E+00  0.00000E+00 -0.37283E-01  0.38052E+00  0.00000E+00 -0.37557E-01
          0.34351E+00  0.00000E+00 -0.54192E-01  0.33237E+00  0.00000E+00 -0.53097E-01  0.30466E+00  0.00000E+00 -0.71201E-01  0.29271E+00  0.00000E+00 -0.69799E-01  0.26737E+00  0.00000E+00 -0.86878E-01  0.26113E+00  0.00000E+00 -0.77886E-01
          0.22667E+00  0.00000E+00 -0.91628E-01  0.29167E+00  0.00000E+00 -0.92291E-01  0.19705E+00  0.00000E+00 -0.12002E+00  0.24186E+00  0.00000E+00 -0.11537E+00  0.19466E+00  0.00000E+00 -0.12761E+00  0.20275E+00  0.00000E+00 -0.12841E+00
          0.18490E+00  0.00000E+00 -0.13445E+00  0.18892E+00  0.00000E+00 -0.13857E+00  0.17843E+00  0.00000E+00 -0.14356E+00  0.18149E+00  0.00000E+00 -0.14887E+00  0.17865E+00  0.00000E+00 -0.15273E+00  0.17546E+00  0.00000E+00 -0.15592E+00
          0.17772E+00  0.00000E+00 -0.16218E+00  0.17668E+00  0.00000E+00 -0.16890E+00  0.17308E+00  0.00000E+00 -0.16707E+00  0.17686E+00  0.00000E+00 -0.17271E+00  0.17584E+00  0.00000E+00 -0.18418E+00  0.17523E+00  0.00000E+00 -0.18598E+00
          0.39133E+00  0.00000E+00 -0.14728E-02  0.42034E+00  0.00000E+00 -0.13660E-01  0.44308E+00  0.00000E+00 -0.13915E-01  0.42237E+00  0.00000E+00 -0.25710E-01  0.42138E+00  0.00000E+00 -0.27889E-01  0.40850E+00  0.00000E+00 -0.30834E-01
          0.39461E+00  0.00000E+00 -0.45703E-01  0.38424E+00  0.00000E+00 -0.46057E-01  0.35530E+00  0.00000E+00 -0.69220E-01  0.33779E+00  0.00000E+00 -0.72426E-01  0.31121E+00  0.00000E+00 -0.88821E-01  0.29319E+00  0.00000E+00 -0.85002E-01
          0.25402E+00  0.00000E+00 -0.11470E+00  0.31548E+00  0.00000E+00 -0.10680E+00  0.22576E+00  0.00000E+00 -0.12502E+00  0.24236E+00  0.00000E+00 -0.11405E+00  0.22420E+00  0.00000E+00 -0.12330E+00  0.22120E+00  0.00000E+00 -0.12619E+00
          0.20468E+00  0.00000E+00 -0.13162E+00  0.20964E+00  0.00000E+00 -0.13518E+00  0.19691E+00  0.00000E+00 -0.14057E+00  0.20094E+00  0.00000E+00 -0.14520E+00  0.19749E+00  0.00000E+00 -0.14925E+00  0.19374E+00  0.00000E+00 -0.15235E+00
          0.19656E+00  0.00000E+00 -0.15812E+00  0.19533E+00  0.00000E+00 -0.16487E+00  0.19150E+00  0.00000E+00 -0.16329E+00  0.19590E+00  0.00000E+00 -0.16839E+00  0.19443E+00  0.00000E+00 -0.17944E+00  0.19412E+00  0.00000E+00 -0.18196E+00
          0.44323E+00  0.00000E+00 -0.11393E-02  0.46457E+00  0.00000E+00 -0.12244E-01  0.47656E+00  0.00000E+00 -0.10762E-01  0.44862E+00  0.00000E+00 -0.22105E-01  0.45061E+00  0.00000E+00 -0.26081E-01  0.43983E+00  0.00000E+00 -0.27309E-01
          0.42982E+00  0.00000E+00 -0.40483E-01  0.41561E+00  0.00000E+00 -0.44290E-01  0.39859E+00  0.00000E+00 -0.54689E-01  0.37827E+00  0.00000E+00 -0.61031E-01  0.34668E+00  0.00000E+00 -0.80627E-01  0.32580E+00  0.00000E+00 -0.80596E-01
          0.29774E+00  0.00000E+00 -0.11271E+00  0.32485E+00  0.00000E+00 -0.94840E-01  0.23463E+00  0.00000E+00 -0.12850E+00  0.25582E+00  0.00000E+00 -0.11295E+00  0.24225E+00  0.00000E+00 -0.12390E+00  0.24010E+00  0.00000E+00 -0.12746E+00
          0.22397E+00  0.00000E+00 -0.13122E+00  0.22906E+00  0.00000E+00 -0.13442E+00  0.21621E+00  0.00000E+00 -0.14010E+00  0.22000E+00  0.00000E+00 -0.14447E+00  0.21671E+00  0.00000E+00 -0.14827E+00  0.21317E+00  0.00000E+00 -0.15152E+00
          0.21604E+00  0.00000E+00 -0.15735E+00  0.21510E+00  0.00000E+00 -0.16384E+00  0.21111E+00  0.00000E+00 -0.16254E+00  0.21587E+00  0.00000E+00 -0.16773E+00  0.21439E+00  0.00000E+00 -0.17874E+00  0.21398E+00  0.00000E+00 -0.18105E+00
          0.48058E+00  0.00000E+00 -0.58493E-03  0.49912E+00  0.00000E+00 -0.11125E-01  0.50787E+00  0.00000E+00 -0.96565E-02  0.48040E+00  0.00000E+00 -0.20671E-01  0.48182E+00  0.00000E+00 -0.24432E-01  0.47084E+00  0.00000E+00 -0.26385E-01
          0.46408E+00  0.00000E+00 -0.38344E-01  0.45216E+00  0.00000E+00 -0.42848E-01  0.43523E+00  0.00000E+00 -0.52711E-01  0.41569E+00  0.00000E+00 -0.58173E-01  0.39604E+00  0.00000E+00 -0.69684E-01  0.36722E+00  0.00000E+00 -0.76057E-01
          0.33498E+00  0.00000E+00 -0.99787E-01  0.33874E+00  0.00000E+00 -0.86232E-01  0.26236E+00  0.00000E+00 -0.12866E+00  0.25731E+00  0.00000E+00 -0.10824E+00  0.26352E+00  0.00000E+00 -0.11776E+00  0.25495E+00  0.00000E+00 -0.12255E+00
          0.24021E+00  0.00000E+00 -0.12499E+00  0.24867E+00  0.00000E+00 -0.12814E+00  0.23390E+00  0.00000E+00 -0.13441E+00  0.23904E+00  0.00000E+00 -0.13839E+00  0.23581E+00  0.00000E+00 -0.14249E+00  0.23164E+00  0.00000E+00 -0.14593E+00
          0.23511E+00  0.00000E+00 -0.15166E+00  0.23413E+00  0.00000E+00 -0.15832E+00  0.22957E+00  0.00000E+00 -0.15716E+00  0.23488E+00  0.00000E+00 -0.16219E+00  0.23311E+00  0.00000E+00 -0.17315E+00  0.23277E+00  0.00000E+00 -0.17566E+00
          0.51540E+00  0.00000E+00 -0.70168E-03  0.53364E+00  0.00000E+00 -0.10903E-01  0.53734E+00  0.00000E+00 -0.89300E-02  0.51010E+00  0.00000E+00 -0.20262E-01  0.51149E+00  0.00000E+00 -0.24450E-01  0.49997E+00  0.00000E+00 -0.26067E-01
          0.49490E+00  0.00000E+00 -0.34936E-01  0.48460E+00  0.00000E+00 -0.40953E-01  0.47101E+00  0.00000E+00 -0.49372E-01  0.45570E+00  0.00000E+00 -0.54546E-01  0.43611E+00  0.00000E+00 -0.64453E-01  0.41355E+00  0.00000E+00 -0.79491E-01
          0.38606E+00  0.00000E+00 -0.77549E-01  0.35559E+00  0.00000E+00 -0.82789E-01  0.29801E+00  0.00000E+00 -0.12248E+00  0.26748E+00  0.00000E+00 -0.10758E+00  0.27558E+00  0.00000E+00 -0.11218E+00  0.26918E+00  0.00000E+00 -0.11989E+00
          0.25632E+00  0.00000E+00 -0.12116E+00  0.26881E+00  0.00000E+00 -0.12300E+00  0.25276E+00  0.00000E+00 -0.13017E+00  0.25940E+00  0.00000E+00 -0.13411E+00  0.25612E+00  0.00000E+00 -0.13767E+00  0.25134E+00  0.00000E+00 -0.14155E+00
          0.25538E+00  0.00000E+00 -0.14735E+00  0.25440E+00  0.00000E+00 -0.15379E+00  0.24874E+00  0.00000E+00 -0.15290E+00  0.25464E+00  0.00000E+00 -0.15769E+00  0.25250E+00  0.00000E+00 -0.16893E+00  0.25207E+00  0.00000E+00 -0.17163E+00
          0.55248E+00  0.00000E+00 -0.93815E-03  0.56957E+00  0.00000E+00 -0.10411E-01  0.56739E+00  0.00000E+00 -0.80293E-02  0.53974E+00  0.00000E+00 -0.20400E-01  0.54220E+00  0.00000E+00 -0.25322E-01  0.52876E+00  0.00000E+00 -0.26738E-01
          0.52449E+00  0.00000E+00 -0.34176E-01  0.51523E+00  0.00000E+00 -0.40050E-01  0.50454E+00  0.00000E+00 -0.47258E-01  0.48959E+00  0.00000E+00 -0.52168E-01  0.47222E+00  0.00000E+00 -0.58321E-01  0.44950E+00  0.00000E+00 -0.73085E-01
          0.42200E+00  0.00000E+00 -0.79590E-01  0.38662E+00  0.00000E+00 -0.74432E-01  0.35484E+00  0.00000E+00 -0.10299E+00  0.29088E+00  0.00000E+00 -0.12060E+00  0.28823E+00  0.00000E+00 -0.11152E+00  0.28421E+00  0.00000E+00 -0.12273E+00
          0.27105E+00  0.00000E+00 -0.12639E+00  0.28689E+00  0.00000E+00 -0.12566E+00  0.27178E+00  0.00000E+00 -0.13227E+00  0.27928E+00  0.00000E+00 -0.13693E+00  0.27650E+00  0.00000E+00 -0.13962E+00  0.27147E+00  0.00000E+00 -0.14346E+00
          0.27549E+00  0.00000E+00 -0.14941E+00  0.27446E+00  0.00000E+00 -0.15524E+00  0.26829E+00  0.00000E+00 -0.15449E+00  0.27411E+00  0.00000E+00 -0.15935E+00  0.27178E+00  0.00000E+00 -0.17003E+00  0.27122E+00  0.00000E+00 -0.17235E+00
          0.59054E+00  0.00000E+00 -0.84374E-03  0.60293E+00  0.00000E+00 -0.87753E-02  0.60225E+00  0.00000E+00 -0.64562E-02  0.57173E+00  0.00000E+00 -0.18807E-01  0.57858E+00  0.00000E+00 -0.26898E-01  0.56119E+00  0.00000E+00 -0.27948E-01
          0.55474E+00  0.00000E+00 -0.34918E-01  0.54642E+00  0.00000E+00 -0.41340E-01  0.53719E+00  0.00000E+00 -0.47378E-01  0.52300E+00  0.00000E+00 -0.52183E-01  0.50797E+00  0.00000E+00 -0.56844E-01  0.48463E+00  0.00000E+00 -0.67589E-01
          0.46376E+00  0.00000E+00 -0.77390E-01  0.42427E+00  0.00000E+00 -0.79433E-01  0.40052E+00  0.00000E+00 -0.87969E-01  0.35398E+00  0.00000E+00 -0.11804E+00  0.30683E+00  0.00000E+00 -0.11391E+00  0.29934E+00  0.00000E+00 -0.11852E+00
          0.28226E+00  0.00000E+00 -0.12867E+00  0.30484E+00  0.00000E+00 -0.12803E+00  0.28779E+00  0.00000E+00 -0.13134E+00  0.29800E+00  0.00000E+00 -0.13715E+00  0.29584E+00  0.00000E+00 -0.13983E+00  0.29013E+00  0.00000E+00 -0.14290E+00
          0.29476E+00  0.00000E+00 -0.14881E+00  0.29365E+00  0.00000E+00 -0.15450E+00  0.28643E+00  0.00000E+00 -0.15374E+00  0.29265E+00  0.00000E+00 -0.15831E+00  0.28996E+00  0.00000E+00 -0.16879E+00  0.28936E+00  0.00000E+00 -0.17116E+00
          0.61992E+00  0.00000E+00 -0.66025E-03  0.62946E+00  0.00000E+00 -0.71509E-02  0.64404E+00  0.00000E+00 -0.91245E-02  0.60625E+00  0.00000E+00 -0.11950E-01  0.63115E+00  0.00000E+00 -0.33864E-01  0.60295E+00  0.00000E+00 -0.28695E-01