<?xml version="1.0"?>
<VTKFile type="UnstructuredGrid" version="0.1" byte_order="LittleEndian" compressor="vtkZLibDataCompressor">
<UnstructuredGrid>
  <Piece NumberOfPoints="1800"        NumberOfCells="1"      >
    <Points>
      <DataArray type="Float32" NumberOfComponents="3" format="ascii" >
        0.89383E-02  0.00000E+00  0.25458E-02  0.64089E-02  0.00000E+00  0.10694E-01  0.60884E-02  0.00000E+00  0.18604E-01  0.63448E-02  0.00000E+00  0.26338E-01  0.63145E-02  0.00000E+00  0.33996E-01  0.62647E-02  0.00000E+00  0.41761E-01
        0.62253E-02  0.00000E+00  0.49560E-01  0.61848E-02  0.00000E+00  0.57414E-01  0.61413E-02  0.00000E+00  0.65328E-01  0.60982E-02  0.00000E+00  0.73299E-01  0.60543E-02  0.00000E+00  0.81329E-01  0.60101E-02  0.00000E+00  0.89419E-01
        0.59659E-02  0.00000E+00  0.97569E-01  0.59220E-02  0.00000E+00  0.10578E+00  0.58788E-02  0.00000E+00  0.11405E+00  0.58369E-02  0.00000E+00  0.12238E+00  0.57963E-02  0.00000E+00  0.13078E+00  0.57573E-02  0.00000E+00  0.13923E+00
        0.57201E-02  0.00000E+00  0.14773E+00  0.56849E-02  0.00000E+00  0.15629E+00  0.56515E-02  0.00000E+00  0.16490E+00  0.56206E-02  0.00000E+00  0.17356E+00  0.55910E-02  0.00000E+00  0.18227E+00  0.55660E-02  0.00000E+00  0.19102E+00
        0.55389E-02  0.00000E+00  0.19980E+00  0.55241E-02  0.00000E+00  0.20863E+00  0.54931E-02  0.00000E+00  0.21747E+00  0.54935E-02  0.00000E+00  0.22635E+00  0.54783E-02  0.00000E+00  0.23538E+00  0.52569E-02  0.00000E+00  0.24377E+00
        0.22765E-01  0.00000E+00  0.39528E-02  0.18612E-01  0.00000E+00  0.11798E-01  0.18899E-01  0.00000E+00  0.19493E-01  0.19149E-01  0.00000E+00  0.26948E-01  0.18919E-01  0.00000E+00  0.34597E-01  0.18873E-01  0.00000E+00  0.42300E-01
        0.18722E-01  0.00000E+00  0.50014E-01  0.18594E-01  0.00000E+00  0.57820E-01  0.18460E-01  0.00000E+00  0.65691E-01  0.18329E-01  0.00000E+00  0.73628E-01  0.18200E-01  0.00000E+00  0.81633E-01  0.18074E-01  0.00000E+00  0.89703E-01
        0.17949E-01  0.00000E+00  0.97835E-01  0.17826E-01  0.00000E+00  0.10603E+00  0.17707E-01  0.00000E+00  0.11428E+00  0.17591E-01  0.00000E+00  0.12260E+00  0.17479E-01  0.00000E+00  0.13097E+00  0.17372E-01  0.00000E+00  0.13940E+00
        0.17269E-01  0.00000E+00  0.14788E+00  0.17172E-01  0.00000E+00  0.15642E+00  0.17080E-01  0.00000E+00  0.16500E+00  0.16995E-01  0.00000E+00  0.17364E+00  0.16913E-01  0.00000E+00  0.18231E+00  0.16841E-01  0.00000E+00  0.19104E+00
        0.16768E-01  0.00000E+00  0.19979E+00  0.16713E-01  0.00000E+00  0.20861E+00  0.16650E-01  0.00000E+00  0.21741E+00  0.16603E-01  0.00000E+00  0.22625E+00  0.16546E-01  0.00000E+00  0.23530E+00  0.16415E-01  0.00000E+00  0.24356E+00
        0.35635E-01  0.00000E+00  0.41717E-02  0.31662E-01  0.00000E+00  0.12206E-01  0.31973E-01  0.00000E+00  0.19873E-01  0.32102E-01  0.00000E+00  0.27405E-01  0.31844E-01  0.00000E+00  0.35116E-01  0.31691E-01  0.00000E+00  0.42827E-01
        0.31443E-01  0.00000E+00  0.50576E-01  0.31208E-01  0.00000E+00  0.58407E-01  0.30967E-01  0.00000E+00  0.66292E-01  0.30734E-01  0.00000E+00  0.74241E-01  0.30507E-01  0.00000E+00  0.82254E-01  0.30287E-01  0.00000E+00  0.90327E-01
        0.30073E-01  0.00000E+00  0.98460E-01  0.29865E-01  0.00000E+00  0.10665E+00  0.29663E-01  0.00000E+00  0.11490E+00  0.29468E-01  0.00000E+00  0.12320E+00  0.29280E-01  0.00000E+00  0.13156E+00  0.29100E-01  0.00000E+00  0.13996E+00
        0.28928E-01  0.00000E+00  0.14843E+00  0.28764E-01  0.00000E+00  0.15694E+00  0.28609E-01  0.00000E+00  0.16550E+00  0.28463E-01  0.00000E+00  0.17411E+00  0.28327E-01  0.00000E+00  0.18276E+00  0.28201E-01  0.00000E+00  0.19147E+00
        0.28086E-01  0.00000E+00  0.20018E+00  0.27984E-01  0.00000E+00  0.20899E+00  0.27891E-01  0.00000E+00  0.21777E+00  0.27808E-01  0.00000E+00  0.22659E+00  0.27733E-01  0.00000E+00  0.23564E+00  0.27667E-01  0.00000E+00  0.24379E+00
        0.48035E-01  0.00000E+00  0.42418E-02  0.45021E-01  0.00000E+00  0.12444E-01  0.45013E-01  0.00000E+00  0.20060E-01  0.45162E-01  0.00000E+00  0.27645E-01  0.44839E-01  0.00000E+00  0.35377E-01  0.44604E-01  0.00000E+00  0.43107E-01
        0.44268E-01  0.00000E+00  0.50884E-01  0.43932E-01  0.00000E+00  0.58734E-01  0.43597E-01  0.00000E+00  0.66636E-01  0.43271E-01  0.00000E+00  0.74599E-01  0.42955E-01  0.00000E+00  0.82621E-01  0.42649E-01  0.00000E+00  0.90700E-01
        0.42352E-01  0.00000E+00  0.98834E-01  0.42064E-01  0.00000E+00  0.10702E+00  0.41785E-01  0.00000E+00  0.11527E+00  0.41515E-01  0.00000E+00  0.12356E+00  0.41255E-01  0.00000E+00  0.13191E+00  0.41004E-01  0.00000E+00  0.14030E+00
        0.40764E-01  0.00000E+00  0.14875E+00  0.40535E-01  0.00000E+00  0.15725E+00  0.40318E-01  0.00000E+00  0.16579E+00  0.40114E-01  0.00000E+00  0.17438E+00  0.39924E-01  0.00000E+00  0.18300E+00  0.39748E-01  0.00000E+00  0.19168E+00
        0.39588E-01  0.00000E+00  0.20037E+00  0.39444E-01  0.00000E+00  0.20914E+00  0.39319E-01  0.00000E+00  0.21788E+00  0.39204E-01  0.00000E+00  0.22666E+00  0.39125E-01  0.00000E+00  0.23563E+00  0.39034E-01  0.00000E+00  0.24379E+00
        0.60221E-01  0.00000E+00  0.42748E-02  0.58273E-01  0.00000E+00  0.12595E-01  0.58087E-01  0.00000E+00  0.20174E-01  0.58167E-01  0.00000E+00  0.27774E-01  0.57818E-01  0.00000E+00  0.35501E-01  0.57482E-01  0.00000E+00  0.43234E-01
        0.57055E-01  0.00000E+00  0.51018E-01  0.56621E-01  0.00000E+00  0.58875E-01  0.56190E-01  0.00000E+00  0.66786E-01  0.55772E-01  0.00000E+00  0.74757E-01  0.55366E-01  0.00000E+00  0.82787E-01  0.54975E-01  0.00000E+00  0.90871E-01
        0.54596E-01  0.00000E+00  0.99010E-01  0.54228E-01  0.00000E+00  0.10720E+00  0.53873E-01  0.00000E+00  0.11544E+00  0.53528E-01  0.00000E+00  0.12374E+00  0.53195E-01  0.00000E+00  0.13208E+00  0.52875E-01  0.00000E+00  0.14047E+00
        0.52567E-01  0.00000E+00  0.14891E+00  0.52273E-01  0.00000E+00  0.15739E+00  0.51993E-01  0.00000E+00  0.16592E+00  0.51730E-01  0.00000E+00  0.17449E+00  0.51483E-01  0.00000E+00  0.18310E+00  0.51255E-01  0.00000E+00  0.19177E+00
        0.51046E-01  0.00000E+00  0.20043E+00  0.50858E-01  0.00000E+00  0.20919E+00  0.50695E-01  0.00000E+00  0.21791E+00  0.50550E-01  0.00000E+00  0.22668E+00  0.50454E-01  0.00000E+00  0.23565E+00  0.50373E-01  0.00000E+00  0.24375E+00
        0.72287E-01  0.00000E+00  0.42880E-02  0.71427E-01  0.00000E+00  0.12681E-01  0.71181E-01  0.00000E+00  0.20248E-01  0.71175E-01  0.00000E+00  0.27851E-01  0.70791E-01  0.00000E+00  0.35565E-01  0.70352E-01  0.00000E+00  0.43295E-01
        0.69831E-01  0.00000E+00  0.51081E-01  0.69299E-01  0.00000E+00  0.58938E-01  0.68774E-01  0.00000E+00  0.66851E-01  0.68265E-01  0.00000E+00  0.74823E-01  0.67775E-01  0.00000E+00  0.82853E-01  0.67301E-01  0.00000E+00  0.90937E-01
        0.66844E-01  0.00000E+00  0.99074E-01  0.66402E-01  0.00000E+00  0.10726E+00  0.65973E-01  0.00000E+00  0.11550E+00  0.65559E-01  0.00000E+00  0.12379E+00  0.65158E-01  0.00000E+00  0.13213E+00  0.64771E-01  0.00000E+00  0.14051E+00
        0.64400E-01  0.00000E+00  0.14895E+00  0.64045E-01  0.00000E+00  0.15742E+00  0.63707E-01  0.00000E+00  0.16594E+00  0.63389E-01  0.00000E+00  0.17450E+00  0.63091E-01  0.00000E+00  0.18310E+00  0.62816E-01  0.00000E+00  0.19175E+00
        0.62565E-01  0.00000E+00  0.20039E+00  0.62341E-01  0.00000E+00  0.20913E+00  0.62149E-01  0.00000E+00  0.21782E+00  0.61985E-01  0.00000E+00  0.22656E+00  0.61873E-01  0.00000E+00  0.23550E+00  0.61770E-01  0.00000E+00  0.24359E+00
        0.84324E-01  0.00000E+00  0.42839E-02  0.84500E-01  0.00000E+00  0.12704E-01  0.84312E-01  0.00000E+00  0.20282E-01  0.84208E-01  0.00000E+00  0.27876E-01  0.83787E-01  0.00000E+00  0.35574E-01  0.83241E-01  0.00000E+00  0.43295E-01
        0.82623E-01  0.00000E+00  0.51073E-01  0.81993E-01  0.00000E+00  0.58924E-01  0.81374E-01  0.00000E+00  0.66830E-01  0.80775E-01  0.00000E+00  0.74797E-01  0.80198E-01  0.00000E+00  0.82822E-01  0.79643E-01  0.00000E+00  0.90901E-01
        0.79107E-01  0.00000E+00  0.99033E-01  0.78589E-01  0.00000E+00  0.10722E+00  0.78088E-01  0.00000E+00  0.11545E+00  0.77603E-01  0.00000E+00  0.12374E+00  0.77135E-01  0.00000E+00  0.13207E+00  0.76683E-01  0.00000E+00  0.14044E+00
        0.76248E-01  0.00000E+00  0.14887E+00  0.75833E-01  0.00000E+00  0.15733E+00  0.75437E-01  0.00000E+00  0.16584E+00  0.75064E-01  0.00000E+00  0.17439E+00  0.74714E-01  0.00000E+00  0.18297E+00  0.74391E-01  0.00000E+00  0.19161E+00
        0.74097E-01  0.00000E+00  0.20024E+00  0.73834E-01  0.00000E+00  0.20897E+00  0.73607E-01  0.00000E+00  0.21764E+00  0.73415E-01  0.00000E+00  0.22638E+00  0.73283E-01  0.00000E+00  0.23530E+00  0.73169E-01  0.00000E+00  0.24336E+00
        0.96397E-01  0.00000E+00  0.42685E-02  0.97497E-01  0.00000E+00  0.12679E-01  0.97455E-01  0.00000E+00  0.20283E-01  0.97270E-01  0.00000E+00  0.27860E-01  0.96803E-01  0.00000E+00  0.35539E-01  0.96147E-01  0.00000E+00  0.43247E-01
        0.95430E-01  0.00000E+00  0.51014E-01  0.94700E-01  0.00000E+00  0.58854E-01  0.93985E-01  0.00000E+00  0.66752E-01  0.93296E-01  0.00000E+00  0.74710E-01  0.92633E-01  0.00000E+00  0.82726E-01  0.91996E-01  0.00000E+00  0.90797E-01
        0.91382E-01  0.00000E+00  0.98921E-01  0.90789E-01  0.00000E+00  0.10710E+00  0.90216E-01  0.00000E+00  0.11532E+00  0.89661E-01  0.00000E+00  0.12360E+00  0.89126E-01  0.00000E+00  0.13192E+00  0.88609E-01  0.00000E+00  0.14029E+00
        0.88113E-01  0.00000E+00  0.14870E+00  0.87638E-01  0.00000E+00  0.15716E+00  0.87186E-01  0.00000E+00  0.16566E+00  0.86759E-01  0.00000E+00  0.17420E+00  0.86360E-01  0.00000E+00  0.18277E+00  0.85991E-01  0.00000E+00  0.19140E+00
        0.85655E-01  0.00000E+00  0.20001E+00  0.85356E-01  0.00000E+00  0.20872E+00  0.85099E-01  0.00000E+00  0.21738E+00  0.84885E-01  0.00000E+00  0.22610E+00  0.84736E-01  0.00000E+00  0.23500E+00  0.84602E-01  0.00000E+00  0.24304E+00
[...]
<PointData>
      <DataArray type="Float32" Name="Velocity vectors"  NumberOfComponents="3"  format="ascii" >
          0.42566E-01  0.00000E+00 -0.15773E-01  0.56158E-02  0.00000E+00 -0.24338E-01  0.46489E-02  0.00000E+00 -0.28964E-01  0.91041E-02  0.00000E+00 -0.41378E-01  0.90759E-02  0.00000E+00 -0.54889E-01  0.77481E-02  0.00000E+00 -0.65931E-01
          0.71082E-02  0.00000E+00 -0.76492E-01  0.66805E-02  0.00000E+00 -0.86606E-01  0.62823E-02  0.00000E+00 -0.96122E-01  0.60338E-02  0.00000E+00 -0.10534E+00  0.58431E-02  0.00000E+00 -0.11432E+00  0.56831E-02  0.00000E+00 -0.12320E+00
          0.55301E-02  0.00000E+00 -0.13205E+00  0.53661E-02  0.00000E+00 -0.14084E+00  0.51944E-02  0.00000E+00 -0.14955E+00  0.50183E-02  0.00000E+00 -0.15814E+00  0.48425E-02  0.00000E+00 -0.16662E+00  0.46733E-02  0.00000E+00 -0.17496E+00
          0.45155E-02  0.00000E+00 -0.18316E+00  0.43681E-02  0.00000E+00 -0.19123E+00  0.42434E-02  0.00000E+00 -0.19916E+00  0.41238E-02  0.00000E+00 -0.20698E+00  0.40308E-02  0.00000E+00 -0.21468E+00  0.39509E-02  0.00000E+00 -0.22234E+00
          0.38168E-02  0.00000E+00 -0.22994E+00  0.38659E-02  0.00000E+00 -0.23729E+00  0.34264E-02  0.00000E+00 -0.24496E+00  0.39638E-02  0.00000E+00 -0.25173E+00  0.32466E-02  0.00000E+00 -0.25868E+00  0.21066E-02  0.00000E+00 -0.26857E+00
          0.76149E-01  0.00000E+00 -0.57907E-02  0.76055E-02  0.00000E+00 -0.23555E-01  0.24276E-01  0.00000E+00 -0.27644E-01  0.27702E-01  0.00000E+00 -0.42398E-01  0.22655E-01  0.00000E+00 -0.53467E-01  0.23233E-01  0.00000E+00 -0.62968E-01
          0.20835E-01  0.00000E+00 -0.73904E-01  0.19811E-01  0.00000E+00 -0.83967E-01  0.18601E-01  0.00000E+00 -0.93579E-01  0.17692E-01  0.00000E+00 -0.10307E+00  0.16988E-01  0.00000E+00 -0.11219E+00  0.16557E-01  0.00000E+00 -0.12114E+00
          0.16137E-01  0.00000E+00 -0.12996E+00  0.15705E-01  0.00000E+00 -0.13864E+00  0.15264E-01  0.00000E+00 -0.14721E+00  0.14822E-01  0.00000E+00 -0.15568E+00  0.14385E-01  0.00000E+00 -0.16404E+00  0.13964E-01  0.00000E+00 -0.17230E+00
          0.13565E-01  0.00000E+00 -0.18046E+00  0.13188E-01  0.00000E+00 -0.18854E+00  0.12850E-01  0.00000E+00 -0.19649E+00  0.12549E-01  0.00000E+00 -0.20442E+00  0.12290E-01  0.00000E+00 -0.21220E+00  0.12141E-01  0.00000E+00 -0.21989E+00
          0.11852E-01  0.00000E+00 -0.22775E+00  0.11815E-01  0.00000E+00 -0.23483E+00  0.11271E-01  0.00000E+00 -0.24316E+00  0.11493E-01  0.00000E+00 -0.24959E+00  0.10735E-01  0.00000E+00 -0.25634E+00  0.10130E-01  0.00000E+00 -0.26791E+00
          0.99449E-01  0.00000E+00 -0.41500E-02  0.24541E-01  0.00000E+00 -0.21276E-01  0.43601E-01  0.00000E+00 -0.26582E-01  0.45150E-01  0.00000E+00 -0.40358E-01  0.40112E-01  0.00000E+00 -0.51242E-01  0.39751E-01  0.00000E+00 -0.61346E-01
          0.36464E-01  0.00000E+00 -0.72114E-01  0.34605E-01  0.00000E+00 -0.81854E-01  0.32654E-01  0.00000E+00 -0.91325E-01  0.31203E-01  0.00000E+00 -0.10066E+00  0.29997E-01  0.00000E+00 -0.10967E+00  0.28984E-01  0.00000E+00 -0.11848E+00
          0.28114E-01  0.00000E+00 -0.12708E+00  0.27314E-01  0.00000E+00 -0.13553E+00  0.26561E-01  0.00000E+00 -0.14389E+00  0.25850E-01  0.00000E+00 -0.15218E+00  0.25174E-01  0.00000E+00 -0.16041E+00  0.24543E-01  0.00000E+00 -0.16859E+00
          0.23958E-01  0.00000E+00 -0.17672E+00  0.23428E-01  0.00000E+00 -0.18483E+00  0.22946E-01  0.00000E+00 -0.19284E+00  0.22528E-01  0.00000E+00 -0.20089E+00  0.22144E-01  0.00000E+00 -0.20879E+00  0.21791E-01  0.00000E+00 -0.21658E+00
          0.21440E-01  0.00000E+00 -0.22463E+00  0.21076E-01  0.00000E+00 -0.23164E+00  0.20686E-01  0.00000E+00 -0.24031E+00  0.20313E-01  0.00000E+00 -0.24667E+00  0.19733E-01  0.00000E+00 -0.25381E+00  0.19065E-01  0.00000E+00 -0.26562E+00
          0.11213E+00  0.00000E+00 -0.22311E-02  0.48944E-01  0.00000E+00 -0.16135E-01  0.58766E-01  0.00000E+00 -0.23826E-01  0.64026E-01  0.00000E+00 -0.37341E-01  0.57399E-01  0.00000E+00 -0.48520E-01  0.56036E-01  0.00000E+00 -0.59172E-01
          0.51859E-01  0.00000E+00 -0.69972E-01  0.48947E-01  0.00000E+00 -0.79828E-01  0.46329E-01  0.00000E+00 -0.89343E-01  0.44204E-01  0.00000E+00 -0.98572E-01  0.42451E-01  0.00000E+00 -0.10744E+00  0.40993E-01  0.00000E+00 -0.11613E+00
          0.39767E-01  0.00000E+00 -0.12464E+00  0.38697E-01  0.00000E+00 -0.13301E+00  0.37736E-01  0.00000E+00 -0.14131E+00  0.36851E-01  0.00000E+00 -0.14953E+00  0.36025E-01  0.00000E+00 -0.15773E+00  0.35255E-01  0.00000E+00 -0.16589E+00
          0.34537E-01  0.00000E+00 -0.17401E+00  0.33877E-01  0.00000E+00 -0.18214E+00  0.33267E-01  0.00000E+00 -0.19018E+00  0.32718E-01  0.00000E+00 -0.19827E+00  0.32219E-01  0.00000E+00 -0.20624E+00  0.31753E-01  0.00000E+00 -0.21411E+00
          0.31330E-01  0.00000E+00 -0.22232E+00  0.30857E-01  0.00000E+00 -0.22949E+00  0.30475E-01  0.00000E+00 -0.23839E+00  0.29932E-01  0.00000E+00 -0.24497E+00  0.29668E-01  0.00000E+00 -0.25253E+00  0.29138E-01  0.00000E+00 -0.26468E+00
          0.11786E+00  0.00000E+00 -0.11832E-02  0.74266E-01  0.00000E+00 -0.11196E-01  0.76673E-01  0.00000E+00 -0.21782E-01  0.82577E-01  0.00000E+00 -0.35204E-01  0.76073E-01  0.00000E+00 -0.46524E-01  0.72924E-01  0.00000E+00 -0.57537E-01
          0.67795E-01  0.00000E+00 -0.68420E-01  0.63789E-01  0.00000E+00 -0.78388E-01  0.60346E-01  0.00000E+00 -0.87962E-01  0.57556E-01  0.00000E+00 -0.97197E-01  0.55250E-01  0.00000E+00 -0.10607E+00  0.53317E-01  0.00000E+00 -0.11474E+00
          0.51695E-01  0.00000E+00 -0.12320E+00  0.50306E-01  0.00000E+00 -0.13151E+00  0.49093E-01  0.00000E+00 -0.13973E+00  0.48014E-01  0.00000E+00 -0.14787E+00  0.47029E-01  0.00000E+00 -0.15599E+00  0.46129E-01  0.00000E+00 -0.16408E+00
          0.45303E-01  0.00000E+00 -0.17216E+00  0.44549E-01  0.00000E+00 -0.18027E+00  0.43858E-01  0.00000E+00 -0.18830E+00  0.43227E-01  0.00000E+00 -0.19642E+00  0.42633E-01  0.00000E+00 -0.20443E+00  0.42087E-01  0.00000E+00 -0.21238E+00
          0.41540E-01  0.00000E+00 -0.22067E+00  0.41041E-01  0.00000E+00 -0.22794E+00  0.40529E-01  0.00000E+00 -0.23700E+00  0.40023E-01  0.00000E+00 -0.24369E+00  0.39635E-01  0.00000E+00 -0.25142E+00  0.39159E-01  0.00000E+00 -0.26370E+00
          0.11828E+00  0.00000E+00 -0.38492E-03  0.98671E-01  0.00000E+00 -0.75605E-02  0.96330E-01  0.00000E+00 -0.19970E-01  0.10136E+00  0.00000E+00 -0.33280E-01  0.94816E-01  0.00000E+00 -0.44894E-01  0.89824E-01  0.00000E+00 -0.56081E-01
          0.83656E-01  0.00000E+00 -0.66920E-01  0.78515E-01  0.00000E+00 -0.76956E-01  0.74175E-01  0.00000E+00 -0.86547E-01  0.70638E-01  0.00000E+00 -0.95772E-01  0.67739E-01  0.00000E+00 -0.10464E+00  0.65349E-01  0.00000E+00 -0.11330E+00
          0.63358E-01  0.00000E+00 -0.12178E+00  0.61677E-01  0.00000E+00 -0.13011E+00  0.60240E-01  0.00000E+00 -0.13835E+00  0.58991E-01  0.00000E+00 -0.14650E+00  0.57885E-01  0.00000E+00 -0.15462E+00  0.56885E-01  0.00000E+00 -0.16272E+00
          0.55973E-01  0.00000E+00 -0.17079E+00  0.55139E-01  0.00000E+00 -0.17890E+00  0.54368E-01  0.00000E+00 -0.18694E+00  0.53665E-01  0.00000E+00 -0.19508E+00  0.53003E-01  0.00000E+00 -0.20311E+00  0.52406E-01  0.00000E+00 -0.21112E+00
          0.51825E-01  0.00000E+00 -0.21948E+00  0.51287E-01  0.00000E+00 -0.22683E+00  0.50793E-01  0.00000E+00 -0.23606E+00  0.50282E-01  0.00000E+00 -0.24282E+00  0.50026E-01  0.00000E+00 -0.25072E+00  0.49464E-01  0.00000E+00 -0.26322E+00
          0.11588E+00  0.00000E+00 -0.46187E-04  0.12177E+00  0.00000E+00 -0.60275E-02  0.11761E+00  0.00000E+00 -0.18563E-01  0.12047E+00  0.00000E+00 -0.31979E-01  0.11395E+00  0.00000E+00 -0.43790E-01  0.10697E+00  0.00000E+00 -0.55019E-01
          0.99703E-01  0.00000E+00 -0.65815E-01  0.93432E-01  0.00000E+00 -0.75871E-01  0.88199E-01  0.00000E+00 -0.85455E-01  0.83966E-01  0.00000E+00 -0.94698E-01  0.80517E-01  0.00000E+00 -0.10362E+00  0.77685E-01  0.00000E+00 -0.11232E+00
          0.75328E-01  0.00000E+00 -0.12085E+00  0.73339E-01  0.00000E+00 -0.12923E+00  0.71644E-01  0.00000E+00 -0.13750E+00  0.70188E-01  0.00000E+00 -0.14569E+00  0.68921E-01  0.00000E+00 -0.15381E+00  0.67802E-01  0.00000E+00 -0.16190E+00
          0.66801E-01  0.00000E+00 -0.16997E+00  0.65899E-01  0.00000E+00 -0.17808E+00  0.65077E-01  0.00000E+00 -0.18611E+00  0.64333E-01  0.00000E+00 -0.19428E+00  0.63636E-01  0.00000E+00 -0.20233E+00  0.63009E-01  0.00000E+00 -0.21040E+00
          0.62398E-01  0.00000E+00 -0.21882E+00  0.61860E-01  0.00000E+00 -0.22623E+00  0.61333E-01  0.00000E+00 -0.23559E+00  0.60852E-01  0.00000E+00 -0.24238E+00  0.60509E-01  0.00000E+00 -0.25040E+00  0.59876E-01  0.00000E+00 -0.26298E+00
          0.11367E+00  0.00000E+00 -0.19075E-03  0.14196E+00  0.00000E+00 -0.64237E-02  0.13942E+00  0.00000E+00 -0.17517E-01  0.14001E+00  0.00000E+00 -0.31204E-01  0.13321E+00  0.00000E+00 -0.43149E-01  0.12419E+00  0.00000E+00 -0.54320E-01
          0.11578E+00  0.00000E+00 -0.65068E-01  0.10840E+00  0.00000E+00 -0.75106E-01  0.10229E+00  0.00000E+00 -0.84686E-01  0.97343E-01  0.00000E+00 -0.93946E-01  0.93325E-01  0.00000E+00 -0.10288E+00  0.90035E-01  0.00000E+00 -0.11159E+00
          0.87304E-01  0.00000E+00 -0.12014E+00  0.85011E-01  0.00000E+00 -0.12855E+00  0.83066E-01  0.00000E+00 -0.13686E+00  0.81404E-01  0.00000E+00 -0.14508E+00  0.79976E-01  0.00000E+00 -0.15325E+00  0.78737E-01  0.00000E+00 -0.16137E+00
          0.77648E-01  0.00000E+00 -0.16947E+00  0.76679E-01  0.00000E+00 -0.17759E+00  0.75803E-01  0.00000E+00 -0.18564E+00  0.75018E-01  0.00000E+00 -0.19384E+00  0.74291E-01  0.00000E+00 -0.20191E+00  0.73647E-01  0.00000E+00 -0.21002E+00
          0.73024E-01  0.00000E+00 -0.21849E+00  0.72490E-01  0.00000E+00 -0.22594E+00  0.71962E-01  0.00000E+00 -0.23540E+00  0.71491E-01  0.00000E+00 -0.24221E+00  0.71188E-01  0.00000E+00 -0.25034E+00  0.70473E-01  0.00000E+00 -0.26306E+00
          0.11389E+00  0.00000E+00 -0.65607E-03  0.15862E+00  0.00000E+00 -0.79198E-02  0.16131E+00  0.00000E+00 -0.17012E-01  0.15980E+00  0.00000E+00 -0.30979E-01  0.15258E+00  0.00000E+00 -0.42917E-01  0.14152E+00  0.00000E+00 -0.53922E-01
          0.13191E+00  0.00000E+00 -0.64617E-01  0.12347E+00  0.00000E+00 -0.74588E-01  0.11652E+00  0.00000E+00 -0.84125E-01  0.11089E+00  0.00000E+00 -0.93401E-01  0.10632E+00  0.00000E+00 -0.10235E+00  0.10259E+00  0.00000E+00 -0.11110E+00
          0.99500E-01  0.00000E+00 -0.11968E+00  0.96909E-01  0.00000E+00 -0.12812E+00  0.94713E-01  0.00000E+00 -0.13648E+00  0.92839E-01  0.00000E+00 -0.14474E+00  0.91231E-01  0.00000E+00 -0.15295E+00  0.89849E-01  0.00000E+00 -0.16111E+00
          0.88653E-01  0.00000E+00 -0.16923E+00  0.87611E-01  0.00000E+00 -0.17738E+00  0.86690E-01  0.00000E+00 -0.18545E+00  0.85877E-01  0.00000E+00 -0.19368E+00  0.85134E-01  0.00000E+00 -0.20178E+00  0.84485E-01  0.00000E+00 -0.20994E+00
          0.83857E-01  0.00000E+00 -0.21846E+00  0.83336E-01  0.00000E+00 -0.22595E+00  0.82804E-01  0.00000E+00 -0.23551E+00  0.82348E-01  0.00000E+00 -0.24233E+00  0.81996E-01  0.00000E+00 -0.25056E+00  0.81187E-01  0.00000E+00 -0.26336E+00
          0.11777E+00  0.00000E+00 -0.12029E-02  0.17236E+00  0.00000E+00 -0.95150E-02  0.18299E+00  0.00000E+00 -0.16999E-01  0.17961E+00  0.00000E+00 -0.31025E-01  0.17198E+00  0.00000E+00 -0.42955E-01  0.15885E+00  0.00000E+00 -0.53743E-01
          0.14804E+00  0.00000E+00 -0.64368E-01  0.13860E+00  0.00000E+00 -0.74264E-01  0.13087E+00  0.00000E+00 -0.83752E-01  0.12458E+00  0.00000E+00 -0.93033E-01  0.11945E+00  0.00000E+00 -0.10200E+00  0.11526E+00  0.00000E+00 -0.11078E+00
          0.11180E+00  0.00000E+00 -0.11939E+00  0.10890E+00  0.00000E+00 -0.12786E+00  0.10645E+00  0.00000E+00 -0.13624E+00  0.10437E+00  0.00000E+00 -0.14453E+00  0.10259E+00  0.00000E+00 -0.15278E+00  0.10107E+00  0.00000E+00 -0.16099E+00
          0.99763E-01  0.00000E+00 -0.16916E+00  0.98640E-01  0.00000E+00 -0.17736E+00  0.97664E-01  0.00000E+00 -0.18547E+00  0.96819E-01  0.00000E+00 -0.19373E+00  0.96057E-01  0.00000E+00 -0.20187E+00  0.95405E-01  0.00000E+00 -0.21007E+00
          0.94776E-01  0.00000E+00 -0.21864E+00  0.94270E-01  0.00000E+00 -0.22616E+00  0.93731E-01  0.00000E+00 -0.23582E+00  0.93282E-01  0.00000E+00 -0.24263E+00  0.92935E-01  0.00000E+00 -0.25095E+00  0.92037E-01  0.00000E+00 -0.26385E+00
          0.12514E+00  0.00000E+00 -0.15861E-02  0.18409E+00  0.00000E+00 -0.10615E-01  0.20455E+00  0.00000E+00 -0.17272E-01  0.19938E+00  0.00000E+00 -0.31063E-01  0.19146E+00  0.00000E+00 -0.43101E-01  0.17621E+00  0.00000E+00 -0.53679E-01
          0.16421E+00  0.00000E+00 -0.64207E-01  0.15381E+00  0.00000E+00 -0.74048E-01  0.14533E+00  0.00000E+00 -0.83470E-01  0.13843E+00  0.00000E+00 -0.92746E-01  0.13278E+00  0.00000E+00 -0.10173E+00  0.12814E+00  0.00000E+00 -0.11054E+00
          0.12430E+00  0.00000E+00 -0.11920E+00  0.12110E+00  0.00000E+00 -0.12771E+00  0.11840E+00  0.00000E+00 -0.13613E+00  0.11611E+00  0.00000E+00 -0.14447E+00  0.11416E+00  0.00000E+00 -0.15276E+00  0.11249E+00  0.00000E+00 -0.16101E+00
          0.11106E+00  0.00000E+00 -0.16923E+00  0.10985E+00  0.00000E+00 -0.17748E+00  0.10881E+00  0.00000E+00 -0.18563E+00  0.10793E+00  0.00000E+00 -0.19395E+00  0.10715E+00  0.00000E+00 -0.20212E+00  0.10650E+00  0.00000E+00 -0.21038E+00
          0.10587E+00  0.00000E+00 -0.21899E+00  0.10537E+00  0.00000E+00 -0.22656E+00  0.10483E+00  0.00000E+00 -0.23631E+00  0.10439E+00  0.00000E+00 -0.24312E+00  0.10401E+00  0.00000E+00 -0.25154E+00  0.10301E+00  0.00000E+00 -0.26453E+00
          0.13522E+00  0.00000E+00 -0.18531E-02  0.19457E+00  0.00000E+00 -0.11165E-01  0.22624E+00  0.00000E+00 -0.17819E-01  0.21914E+00  0.00000E+00 -0.30993E-01  0.21108E+00  0.00000E+00 -0.43285E-01  0.19360E+00  0.00000E+00 -0.53691E-01
          0.18045E+00  0.00000E+00 -0.64078E-01  0.16912E+00  0.00000E+00 -0.73903E-01  0.15992E+00  0.00000E+00 -0.83254E-01  0.15244E+00  0.00000E+00 -0.92529E-01  0.14629E+00  0.00000E+00 -0.10152E+00  0.14122E+00  0.00000E+00 -0.11037E+00
          0.13700E+00  0.00000E+00 -0.11907E+00  0.13347E+00  0.00000E+00 -0.12764E+00  0.13051E+00  0.00000E+00 -0.13611E+00  0.12801E+00  0.00000E+00 -0.14449E+00  0.12588E+00  0.00000E+00 -0.15283E+00  0.12406E+00  0.00000E+00 -0.16113E+00
          0.12252E+00  0.00000E+00 -0.16940E+00  0.12121E+00  0.00000E+00 -0.17770E+00  0.12010E+00  0.00000E+00 -0.18591E+00  0.11918E+00  0.00000E+00 -0.19430E+00  0.11837E+00  0.00000E+00 -0.20251E+00  0.11771E+00  0.00000E+00 -0.21084E+00
          0.11708E+00  0.00000E+00 -0.21949E+00  0.11660E+00  0.00000E+00 -0.22710E+00  0.11605E+00  0.00000E+00 -0.23695E+00  0.11561E+00  0.00000E+00 -0.24375E+00  0.11522E+00  0.00000E+00 -0.25228E+00  0.11412E+00  0.00000E+00 -0.26537E+00
          0.14719E+00  0.00000E+00 -0.21039E-02  0.20435E+00  0.00000E+00 -0.11273E-01  0.24805E+00  0.00000E+00 -0.18648E-01  0.23894E+00  0.00000E+00 -0.30774E-01  0.23092E+00  0.00000E+00 -0.43446E-01  0.21106E+00  0.00000E+00 -0.53751E-01
          0.19679E+00  0.00000E+00 -0.63937E-01  0.18456E+00  0.00000E+00 -0.73798E-01  0.17468E+00  0.00000E+00 -0.83072E-01  0.16664E+00  0.00000E+00 -0.92342E-01  0.16001E+00  0.00000E+00 -0.10135E+00  0.15453E+00  0.00000E+00 -0.11022E+00
          0.14995E+00  0.00000E+00 -0.11897E+00  0.14610E+00  0.00000E+00 -0.12760E+00  0.14286E+00  0.00000E+00 -0.13614E+00  0.14013E+00  0.00000E+00 -0.14458E+00  0.13782E+00  0.00000E+00 -0.15298E+00  0.13585E+00  0.00000E+00 -0.16133E+00
          0.13419E+00  0.00000E+00 -0.16966E+00  0.13279E+00  0.00000E+00 -0.17802E+00  0.13160E+00  0.00000E+00 -0.18629E+00  0.13062E+00  0.00000E+00 -0.19475E+00  0.12978E+00  0.00000E+00 -0.20301E+00  0.12911E+00  0.00000E+00 -0.21142E+00
          0.12847E+00  0.00000E+00 -0.22013E+00  0.12800E+00  0.00000E+00 -0.22778E+00  0.12744E+00  0.00000E+00 -0.23775E+00  0.12700E+00  0.00000E+00 -0.24453E+00  0.12659E+00  0.00000E+00 -0.25318E+00  0.12538E+00  0.00000E+00 -0.26637E+00
          0.16048E+00  0.00000E+00 -0.24162E-02  0.21394E+00  0.00000E+00 -0.11113E-01  0.26981E+00  0.00000E+00 -0.19853E-01  0.25886E+00  0.00000E+00 -0.30510E-01  0.25104E+00  0.00000E+00 -0.43598E-01  0.22863E+00  0.00000E+00 -0.53885E-01
          0.21331E+00  0.00000E+00 -0.63783E-01  0.20018E+00  0.00000E+00 -0.73734E-01  0.18962E+00  0.00000E+00 -0.82930E-01  0.18104E+00  0.00000E+00 -0.92191E-01  0.17395E+00  0.00000E+00 -0.10122E+00  0.16807E+00  0.00000E+00 -0.11010E+00
          0.16314E+00  0.00000E+00 -0.11890E+00  0.15898E+00  0.00000E+00 -0.12758E+00  0.15546E+00  0.00000E+00 -0.13619E+00  0.15249E+00  0.00000E+00 -0.14471E+00  0.14997E+00  0.00000E+00 -0.15318E+00  0.14785E+00  0.00000E+00 -0.16160E+00
          0.14606E+00  0.00000E+00 -0.17000E+00  0.14456E+00  0.00000E+00 -0.17842E+00  0.14330E+00  0.00000E+00 -0.18675E+00  0.14226E+00  0.00000E+00 -0.19529E+00  0.14137E+00  0.00000E+00 -0.20361E+00  0.14068E+00  0.00000E+00 -0.21211E+00
          0.14002E+00  0.00000E+00 -0.22088E+00  0.13956E+00  0.00000E+00 -0.22859E+00  0.13898E+00  0.00000E+00 -0.23868E+00  0.13854E+00  0.00000E+00 -0.24545E+00  0.13811E+00  0.00000E+00 -0.25422E+00  0.13680E+00  0.00000E+00 -0.26753E+00
          0.17475E+00  0.00000E+00 -0.28732E-02  0.22394E+00  0.00000E+00 -0.10892E-01  0.29136E+00  0.00000E+00 -0.21647E-01  0.27887E+00  0.00000E+00 -0.30430E-01  0.27142E+00  0.00000E+00 -0.43860E-01  0.24632E+00  0.00000E+00 -0.54183E-01
          0.23004E+00  0.00000E+00 -0.63661E-01  0.21601E+00  0.00000E+00 -0.73735E-01  0.20478E+00  0.00000E+00 -0.82846E-01  0.19568E+00  0.00000E+00 -0.92083E-01  0.18814E+00  0.00000E+00 -0.10113E+00  0.18187E+00  0.00000E+00 -0.11002E+00
          0.17659E+00  0.00000E+00 -0.11886E+00  0.17213E+00  0.00000E+00 -0.12759E+00  0.16835E+00  0.00000E+00 -0.13626E+00  0.16513E+00  0.00000E+00 -0.14486E+00  0.16241E+00  0.00000E+00 -0.15341E+00  0.16011E+00  0.00000E+00 -0.16192E+00
          0.15818E+00  0.00000E+00 -0.17040E+00  0.15657E+00  0.00000E+00 -0.17890E+00  0.15523E+00  0.00000E+00 -0.18730E+00  0.15412E+00  0.00000E+00 -0.19592E+00  0.15319E+00  0.00000E+00 -0.20431E+00  0.15246E+00  0.00000E+00 -0.21291E+00
          0.15178E+00  0.00000E+00 -0.22175E+00  0.15131E+00  0.00000E+00 -0.22952E+00  0.15071E+00  0.00000E+00 -0.23976E+00  0.15027E+00  0.00000E+00 -0.24651E+00  0.14981E+00  0.00000E+00 -0.25543E+00  0.14839E+00  0.00000E+00 -0.26886E+00
          0.19004E+00  0.00000E+00 -0.35419E-02  0.23504E+00  0.00000E+00 -0.10768E-01  0.31247E+00  0.00000E+00 -0.24064E-01  0.29887E+00  0.00000E+00 -0.30706E-01  0.29194E+00  0.00000E+00 -0.44314E-01  0.26408E+00  0.00000E+00 -0.54735E-01
          0.24696E+00  0.00000E+00 -0.63630E-01  0.23208E+00  0.00000E+00 -0.73833E-01  0.22017E+00  0.00000E+00 -0.82851E-01  0.21056E+00  0.00000E+00 -0.92041E-01  0.20258E+00  0.00000E+00 -0.10111E+00  0.19593E+00  0.00000E+00 -0.10999E+00
          0.19033E+00  0.00000E+00 -0.11886E+00  0.18557E+00  0.00000E+00 -0.12763E+00  0.18153E+00  0.00000E+00 -0.13636E+00  0.17807E+00  0.00000E+00 -0.14503E+00  0.17514E+00  0.00000E+00 -0.15367E+00  0.17266E+00  0.00000E+00 -0.16226E+00
          0.17057E+00  0.00000E+00 -0.17085E+00  0.16884E+00  0.00000E+00 -0.17944E+00  0.16740E+00  0.00000E+00 -0.18793E+00  0.16623E+00  0.00000E+00 -0.19664E+00  0.16524E+00  0.00000E+00 -0.20510E+00  0.16448E+00  0.00000E+00 -0.21381E+00
          0.16375E+00  0.00000E+00 -0.22273E+00  0.16328E+00  0.00000E+00 -0.23058E+00  0.16264E+00  0.00000E+00 -0.24098E+00  0.16220E+00  0.00000E+00 -0.24771E+00  0.16171E+00  0.00000E+00 -0.25679E+00  0.16017E+00  0.00000E+00 -0.27035E+00
          0.20670E+00  0.00000E+00 -0.43445E-02  0.24796E+00  0.00000E+00 -0.10757E-01  0.33292E+00  0.00000E+00 -0.26926E-01  0.31883E+00  0.00000E+00 -0.31439E-01  0.31246E+00  0.00000E+00 -0.44931E-01  0.28182E+00  0.00000E+00 -0.55574E-01