<?xml version="1.0"?>
<VTKFile type="UnstructuredGrid" version="0.1" byte_order="LittleEndian" compressor="vtkZLibDataCompressor">
<UnstructuredGrid>
  <Piece NumberOfPoints="1800"        NumberOfCells="1"      >
    <Points>
      <DataArray type="Float32" NumberOfComponents="3" format="ascii" >
        0.57294E-01  0.00000E+00  0.24931E-02  0.38827E-01  0.00000E+00  0.30402E-02  0.20073E-01  0.00000E+00  0.36822E-02  0.28670E-01  0.00000E+00  0.86744E-02  0.77988E-02  0.00000E+00  0.62370E-02  0.15878E-01  0.00000E+00  0.12363E-01
        0.60812E-02  0.00000E+00  0.15604E-01  0.16510E-01  0.00000E+00  0.20458E-01  0.71610E-02  0.00000E+00  0.24167E-01  0.13707E-01  0.00000E+00  0.29101E-01  0.67171E-02  0.00000E+00  0.34256E-01  0.14133E-01  0.00000E+00  0.39383E-01
        0.68903E-02  0.00000E+00  0.44021E-01  0.15113E-01  0.00000E+00  0.48485E-01  0.66198E-02  0.00000E+00  0.53903E-01  0.16129E-01  0.00000E+00  0.56805E-01  0.10092E-01  0.00000E+00  0.62005E-01  0.15618E-01  0.00000E+00  0.65939E-01
        0.12881E-01  0.00000E+00  0.70782E-01  0.13599E-01  0.00000E+00  0.75603E-01  0.12757E-01  0.00000E+00  0.79817E-01  0.12847E-01  0.00000E+00  0.84593E-01  0.12757E-01  0.00000E+00  0.89292E-01  0.12077E-01  0.00000E+00  0.93645E-01
        0.10899E-01  0.00000E+00  0.98031E-01  0.10553E-01  0.00000E+00  0.10329E+00  0.11219E-01  0.00000E+00  0.10874E+00  0.10338E-01  0.00000E+00  0.11336E+00  0.76799E-02  0.00000E+00  0.11718E+00  0.79132E-02  0.00000E+00  0.12058E+00
        0.75232E-01  0.00000E+00  0.31584E-02  0.48056E-01  0.00000E+00  0.86694E-02  0.66018E-01  0.00000E+00  0.91376E-02  0.57082E-01  0.00000E+00  0.13954E-01  0.37839E-01  0.00000E+00  0.13848E-01  0.47570E-01  0.00000E+00  0.19040E-01
        0.26619E-01  0.00000E+00  0.17581E-01  0.39783E-01  0.00000E+00  0.23820E-01  0.27876E-01  0.00000E+00  0.25521E-01  0.40812E-01  0.00000E+00  0.31330E-01  0.24554E-01  0.00000E+00  0.32559E-01  0.37565E-01  0.00000E+00  0.37882E-01
        0.25201E-01  0.00000E+00  0.40836E-01  0.38692E-01  0.00000E+00  0.45332E-01  0.26402E-01  0.00000E+00  0.48968E-01  0.39576E-01  0.00000E+00  0.52989E-01  0.27207E-01  0.00000E+00  0.57299E-01  0.40096E-01  0.00000E+00  0.60963E-01
        0.28287E-01  0.00000E+00  0.65562E-01  0.39317E-01  0.00000E+00  0.69333E-01  0.30782E-01  0.00000E+00  0.73425E-01  0.35945E-01  0.00000E+00  0.79005E-01  0.30597E-01  0.00000E+00  0.83608E-01  0.33877E-01  0.00000E+00  0.89295E-01
        0.29266E-01  0.00000E+00  0.94039E-01  0.33873E-01  0.00000E+00  0.99012E-01  0.27816E-01  0.00000E+00  0.10372E+00  0.30844E-01  0.00000E+00  0.11079E+00  0.27726E-01  0.00000E+00  0.11358E+00  0.28414E-01  0.00000E+00  0.11767E+00
        0.95493E-01  0.00000E+00  0.32319E-02  0.84596E-01  0.00000E+00  0.84489E-02  0.10628E+00  0.00000E+00  0.80379E-02  0.94401E-01  0.00000E+00  0.13134E-01  0.74823E-01  0.00000E+00  0.14653E-01  0.84707E-01  0.00000E+00  0.18838E-01
        0.64563E-01  0.00000E+00  0.20926E-01  0.75216E-01  0.00000E+00  0.24538E-01  0.55294E-01  0.00000E+00  0.25673E-01  0.67124E-01  0.00000E+00  0.30348E-01  0.52853E-01  0.00000E+00  0.33218E-01  0.65017E-01  0.00000E+00  0.37799E-01
        0.50678E-01  0.00000E+00  0.40769E-01  0.63880E-01  0.00000E+00  0.45150E-01  0.51741E-01  0.00000E+00  0.48744E-01  0.64264E-01  0.00000E+00  0.53062E-01  0.51705E-01  0.00000E+00  0.56848E-01  0.64311E-01  0.00000E+00  0.61408E-01
        0.51737E-01  0.00000E+00  0.65076E-01  0.62725E-01  0.00000E+00  0.69814E-01  0.51838E-01  0.00000E+00  0.73358E-01  0.59737E-01  0.00000E+00  0.79065E-01  0.50269E-01  0.00000E+00  0.82059E-01  0.56357E-01  0.00000E+00  0.87732E-01
        0.50192E-01  0.00000E+00  0.91695E-01  0.51745E-01  0.00000E+00  0.97415E-01  0.49147E-01  0.00000E+00  0.10313E+00  0.49163E-01  0.00000E+00  0.10977E+00  0.46689E-01  0.00000E+00  0.11308E+00  0.47304E-01  0.00000E+00  0.11735E+00
        0.13879E+00  0.00000E+00  0.31870E-02  0.11691E+00  0.00000E+00  0.53499E-02  0.12879E+00  0.00000E+00  0.82929E-02  0.12072E+00  0.00000E+00  0.14529E-01  0.10670E+00  0.00000E+00  0.16910E-01  0.11505E+00  0.00000E+00  0.22024E-01
        0.96773E-01  0.00000E+00  0.22127E-01  0.10616E+00  0.00000E+00  0.27546E-01  0.87660E-01  0.00000E+00  0.27833E-01  0.97665E-01  0.00000E+00  0.32920E-01  0.79843E-01  0.00000E+00  0.33421E-01  0.91782E-01  0.00000E+00  0.39058E-01
        0.77795E-01  0.00000E+00  0.41063E-01  0.90572E-01  0.00000E+00  0.46237E-01  0.76776E-01  0.00000E+00  0.48390E-01  0.89417E-01  0.00000E+00  0.53758E-01  0.76207E-01  0.00000E+00  0.56274E-01  0.88063E-01  0.00000E+00  0.61946E-01
        0.75731E-01  0.00000E+00  0.64491E-01  0.85907E-01  0.00000E+00  0.70691E-01  0.74050E-01  0.00000E+00  0.72946E-01  0.82896E-01  0.00000E+00  0.79105E-01  0.72658E-01  0.00000E+00  0.81664E-01  0.77991E-01  0.00000E+00  0.87635E-01
        0.73253E-01  0.00000E+00  0.92183E-01  0.69777E-01  0.00000E+00  0.96680E-01  0.69491E-01  0.00000E+00  0.10255E+00  0.67579E-01  0.00000E+00  0.10920E+00  0.68389E-01  0.00000E+00  0.11243E+00  0.67516E-01  0.00000E+00  0.11651E+00
        0.17400E+00  0.00000E+00  0.32420E-02  0.15586E+00  0.00000E+00  0.53575E-02  0.14532E+00  0.00000E+00  0.10651E-01  0.15677E+00  0.00000E+00  0.14983E-01  0.13613E+00  0.00000E+00  0.15972E-01  0.14816E+00  0.00000E+00  0.20557E-01
        0.12809E+00  0.00000E+00  0.21921E-01  0.13917E+00  0.00000E+00  0.25333E-01  0.12105E+00  0.00000E+00  0.29338E-01  0.13213E+00  0.00000E+00  0.32351E-01  0.11247E+00  0.00000E+00  0.35332E-01  0.12441E+00  0.00000E+00  0.38966E-01
        0.10605E+00  0.00000E+00  0.41013E-01  0.11939E+00  0.00000E+00  0.45570E-01  0.10413E+00  0.00000E+00  0.47987E-01  0.11629E+00  0.00000E+00  0.52775E-01  0.10174E+00  0.00000E+00  0.55095E-01  0.11239E+00  0.00000E+00  0.60586E-01
        0.99607E-01  0.00000E+00  0.63107E-01  0.10865E+00  0.00000E+00  0.69670E-01  0.97083E-01  0.00000E+00  0.71949E-01  0.10499E+00  0.00000E+00  0.78437E-01  0.96018E-01  0.00000E+00  0.81174E-01  0.98317E-01  0.00000E+00  0.88011E-01
        0.93340E-01  0.00000E+00  0.91687E-01  0.91545E-01  0.00000E+00  0.97219E-01  0.88896E-01  0.00000E+00  0.10265E+00  0.88753E-01  0.00000E+00  0.10912E+00  0.87370E-01  0.00000E+00  0.11216E+00  0.87700E-01  0.00000E+00  0.11632E+00
        0.19596E+00  0.00000E+00  0.31963E-02  0.18518E+00  0.00000E+00  0.76444E-02  0.16677E+00  0.00000E+00  0.10154E-01  0.19986E+00  0.00000E+00  0.12228E-01  0.17683E+00  0.00000E+00  0.14536E-01  0.18964E+00  0.00000E+00  0.16420E-01
        0.16619E+00  0.00000E+00  0.20148E-01  0.17211E+00  0.00000E+00  0.26849E-01  0.15571E+00  0.00000E+00  0.26323E-01  0.16251E+00  0.00000E+00  0.31680E-01  0.14563E+00  0.00000E+00  0.32455E-01  0.15218E+00  0.00000E+00  0.38480E-01
        0.13787E+00  0.00000E+00  0.40340E-01  0.14619E+00  0.00000E+00  0.46334E-01  0.13278E+00  0.00000E+00  0.47474E-01  0.14374E+00  0.00000E+00  0.54318E-01  0.12871E+00  0.00000E+00  0.54383E-01  0.13710E+00  0.00000E+00  0.60796E-01
        0.12366E+00  0.00000E+00  0.61976E-01  0.13099E+00  0.00000E+00  0.69435E-01  0.11890E+00  0.00000E+00  0.71039E-01  0.12679E+00  0.00000E+00  0.77593E-01  0.11833E+00  0.00000E+00  0.80284E-01  0.11743E+00  0.00000E+00  0.87241E-01
        0.11624E+00  0.00000E+00  0.92005E-01  0.11128E+00  0.00000E+00  0.95344E-01  0.10987E+00  0.00000E+00  0.10203E+00  0.10925E+00  0.00000E+00  0.10838E+00  0.10906E+00  0.00000E+00  0.11112E+00  0.10864E+00  0.00000E+00  0.11534E+00
        0.22439E+00  0.00000E+00  0.30906E-02  0.24106E+00  0.00000E+00  0.62157E-02  0.20985E+00  0.00000E+00  0.64102E-02  0.23212E+00  0.00000E+00  0.10824E-01  0.21768E+00  0.00000E+00  0.12275E-01  0.22551E+00  0.00000E+00  0.17798E-01
        0.20858E+00  0.00000E+00  0.18319E-01  0.19788E+00  0.00000E+00  0.22136E-01  0.18222E+00  0.00000E+00  0.22230E-01  0.18421E+00  0.00000E+00  0.30318E-01  0.17795E+00  0.00000E+00  0.37138E-01  0.16825E+00  0.00000E+00  0.38894E-01
        0.17719E+00  0.00000E+00  0.46213E-01  0.16059E+00  0.00000E+00  0.44090E-01  0.16952E+00  0.00000E+00  0.52463E-01  0.15729E+00  0.00000E+00  0.51363E-01  0.15796E+00  0.00000E+00  0.58474E-01  0.15832E+00  0.00000E+00  0.65935E-01
        0.14633E+00  0.00000E+00  0.64464E-01  0.15352E+00  0.00000E+00  0.73424E-01  0.14040E+00  0.00000E+00  0.72641E-01  0.14866E+00  0.00000E+00  0.79917E-01  0.14079E+00  0.00000E+00  0.82085E-01  0.13561E+00  0.00000E+00  0.87543E-01
        0.13723E+00  0.00000E+00  0.92679E-01  0.13387E+00  0.00000E+00  0.96813E-01  0.13003E+00  0.00000E+00  0.10264E+00  0.13142E+00  0.00000E+00  0.10882E+00  0.13000E+00  0.00000E+00  0.11158E+00  0.13010E+00  0.00000E+00  0.11572E+00
        0.25409E+00  0.00000E+00  0.32722E-02  0.26635E+00  0.00000E+00  0.72412E-02  0.25334E+00  0.00000E+00  0.12386E-01  0.27743E+00  0.00000E+00  0.12232E-01  0.26316E+00  0.00000E+00  0.15766E-01  0.24421E+00  0.00000E+00  0.16234E-01
        0.23700E+00  0.00000E+00  0.21578E-01  0.21923E+00  0.00000E+00  0.24755E-01  0.20940E+00  0.00000E+00  0.27427E-01  0.19628E+00  0.00000E+00  0.30069E-01  0.20512E+00  0.00000E+00  0.35820E-01  0.19129E+00  0.00000E+00  0.37853E-01
        0.20242E+00  0.00000E+00  0.44136E-01  0.18855E+00  0.00000E+00  0.45768E-01  0.19790E+00  0.00000E+00  0.51680E-01  0.18720E+00  0.00000E+00  0.54275E-01  0.17719E+00  0.00000E+00  0.57478E-01  0.18388E+00  0.00000E+00  0.64502E-01
        0.17030E+00  0.00000E+00  0.64535E-01  0.17803E+00  0.00000E+00  0.71971E-01  0.16587E+00  0.00000E+00  0.73486E-01  0.17338E+00  0.00000E+00  0.79894E-01  0.16670E+00  0.00000E+00  0.83701E-01  0.15818E+00  0.00000E+00  0.86172E-01
        0.16197E+00  0.00000E+00  0.91917E-01  0.15707E+00  0.00000E+00  0.95796E-01  0.15280E+00  0.00000E+00  0.10124E+00  0.15510E+00  0.00000E+00  0.10696E+00  0.15295E+00  0.00000E+00  0.11003E+00  0.15274E+00  0.00000E+00  0.11397E+00
[...]
<PointData>
      <DataArray type="Float32" Name="Velocity vectors"  NumberOfComponents="3"  format="ascii" >
          0.99454E-01  0.00000E+00 -0.37071E-03  0.72647E-01  0.00000E+00 -0.16311E-02  0.31789E-01  0.00000E+00 -0.20814E-02  0.61061E-01  0.00000E+00 -0.17222E-01  0.14217E-01  0.00000E+00 -0.15476E-01  0.36285E-01  0.00000E+00 -0.16728E-01
         -0.60088E-02  0.00000E+00 -0.35118E-01  0.30067E-01  0.00000E+00 -0.30172E-01 -0.16983E-02  0.00000E+00 -0.46494E-01  0.39644E-01  0.00000E+00 -0.62612E-01 -0.12968E-02  0.00000E+00 -0.72635E-01  0.30881E-01  0.00000E+00 -0.77301E-01
         -0.30232E-02  0.00000E+00 -0.93256E-01  0.29082E-01  0.00000E+00 -0.10011E+00 -0.84617E-02  0.00000E+00 -0.10624E+00  0.29766E-01  0.00000E+00 -0.12047E+00 -0.23871E-01  0.00000E+00 -0.11736E+00  0.35311E-01  0.00000E+00 -0.14089E+00
         -0.13162E-01  0.00000E+00 -0.14114E+00  0.10036E-01  0.00000E+00 -0.13168E+00 -0.37220E-02  0.00000E+00 -0.13436E+00  0.57097E-02  0.00000E+00 -0.13286E+00  0.80111E-02  0.00000E+00 -0.13376E+00  0.44023E-02  0.00000E+00 -0.13513E+00
         -0.96549E-03  0.00000E+00 -0.13441E+00  0.48895E-02  0.00000E+00 -0.13115E+00  0.89372E-02  0.00000E+00 -0.13243E+00  0.67906E-02  0.00000E+00 -0.13982E+00  0.35569E-02  0.00000E+00 -0.14188E+00  0.33588E-02  0.00000E+00 -0.14257E+00
          0.12550E+00  0.00000E+00 -0.10879E-02  0.85363E-01  0.00000E+00 -0.10161E-01  0.11244E+00  0.00000E+00 -0.11029E-01  0.96063E-01  0.00000E+00 -0.16674E-01  0.74016E-01  0.00000E+00 -0.14105E-01  0.85801E-01  0.00000E+00 -0.17232E-01
          0.36704E-01  0.00000E+00 -0.31763E-01  0.56022E-01  0.00000E+00 -0.38497E-01  0.66433E-01  0.00000E+00 -0.44070E-01  0.78070E-01  0.00000E+00 -0.36609E-01  0.32499E-01  0.00000E+00 -0.59661E-01  0.46504E-01  0.00000E+00 -0.52276E-01
          0.40880E-01  0.00000E+00 -0.63976E-01  0.56417E-01  0.00000E+00 -0.59150E-01  0.43729E-01  0.00000E+00 -0.73052E-01  0.51959E-01  0.00000E+00 -0.61825E-01  0.34972E-01  0.00000E+00 -0.81348E-01  0.45310E-01  0.00000E+00 -0.72989E-01
          0.11600E-01  0.00000E+00 -0.81992E-01  0.46751E-01  0.00000E+00 -0.84540E-01 -0.82407E-02  0.00000E+00 -0.10030E+00  0.49027E-01  0.00000E+00 -0.10620E+00 -0.22730E-01  0.00000E+00 -0.12284E+00  0.35438E-01  0.00000E+00 -0.12148E+00
         -0.83301E-02  0.00000E+00 -0.13388E+00  0.33623E-01  0.00000E+00 -0.13440E+00  0.44048E-02  0.00000E+00 -0.14816E+00  0.24991E-01  0.00000E+00 -0.14670E+00  0.13528E-01  0.00000E+00 -0.15078E+00  0.15505E-01  0.00000E+00 -0.15035E+00
          0.14331E+00  0.00000E+00  0.32649E-03  0.13758E+00  0.00000E+00 -0.62113E-02  0.15215E+00  0.00000E+00 -0.68369E-02  0.14484E+00  0.00000E+00 -0.65034E-02  0.12334E+00  0.00000E+00 -0.16801E-01  0.13157E+00  0.00000E+00 -0.17730E-01
          0.11263E+00  0.00000E+00 -0.25688E-01  0.11724E+00  0.00000E+00 -0.23724E-01  0.93921E-01  0.00000E+00 -0.37906E-01  0.95092E-01  0.00000E+00 -0.34443E-01  0.80371E-01  0.00000E+00 -0.44449E-01  0.78466E-01  0.00000E+00 -0.41936E-01
          0.59729E-01  0.00000E+00 -0.52111E-01  0.70429E-01  0.00000E+00 -0.47065E-01  0.68903E-01  0.00000E+00 -0.57791E-01  0.69811E-01  0.00000E+00 -0.51544E-01  0.60039E-01  0.00000E+00 -0.63922E-01  0.66222E-01  0.00000E+00 -0.58705E-01
          0.45973E-01  0.00000E+00 -0.70361E-01  0.67720E-01  0.00000E+00 -0.65240E-01  0.30046E-01  0.00000E+00 -0.78931E-01  0.74331E-01  0.00000E+00 -0.78413E-01  0.13566E-01  0.00000E+00 -0.99513E-01  0.72346E-01  0.00000E+00 -0.10341E+00
          0.15953E-01  0.00000E+00 -0.12744E+00  0.47270E-01  0.00000E+00 -0.11887E+00  0.18342E-01  0.00000E+00 -0.12537E+00  0.26262E-01  0.00000E+00 -0.12716E+00  0.13109E-01  0.00000E+00 -0.12912E+00  0.19914E-01  0.00000E+00 -0.12965E+00
          0.18203E+00  0.00000E+00 -0.61687E-03  0.15525E+00  0.00000E+00 -0.10920E-02  0.16620E+00  0.00000E+00 -0.96771E-02  0.15989E+00  0.00000E+00 -0.10153E-01  0.14575E+00  0.00000E+00 -0.71190E-02  0.15414E+00  0.00000E+00 -0.14434E-01
          0.13801E+00  0.00000E+00 -0.10130E-01  0.14727E+00  0.00000E+00 -0.18424E-01  0.12658E+00  0.00000E+00 -0.20333E-01  0.13351E+00  0.00000E+00 -0.21960E-01  0.10329E+00  0.00000E+00 -0.37661E-01  0.98635E-01  0.00000E+00 -0.38074E-01
          0.85641E-01  0.00000E+00 -0.42182E-01  0.96117E-01  0.00000E+00 -0.41738E-01  0.82912E-01  0.00000E+00 -0.49911E-01  0.87031E-01  0.00000E+00 -0.52588E-01  0.80211E-01  0.00000E+00 -0.57647E-01  0.83554E-01  0.00000E+00 -0.54526E-01
          0.73543E-01  0.00000E+00 -0.62864E-01  0.86359E-01  0.00000E+00 -0.60153E-01  0.60643E-01  0.00000E+00 -0.76001E-01  0.95799E-01  0.00000E+00 -0.68544E-01  0.42747E-01  0.00000E+00 -0.83676E-01  0.99049E-01  0.00000E+00 -0.92652E-01
          0.66875E-01  0.00000E+00 -0.10267E+00  0.29426E-01  0.00000E+00 -0.10904E+00  0.34625E-01  0.00000E+00 -0.11129E+00  0.22887E-01  0.00000E+00 -0.11387E+00  0.29272E-01  0.00000E+00 -0.11466E+00  0.26141E-01  0.00000E+00 -0.11642E+00
          0.23832E+00  0.00000E+00 -0.21880E-03  0.20821E+00  0.00000E+00 -0.35725E-02  0.20675E+00  0.00000E+00 -0.13501E-01  0.21430E+00  0.00000E+00 -0.62148E-02  0.18122E+00  0.00000E+00 -0.29248E-01  0.19046E+00  0.00000E+00 -0.22590E-01
          0.17073E+00  0.00000E+00 -0.24914E-01  0.17967E+00  0.00000E+00 -0.36750E-01  0.16352E+00  0.00000E+00 -0.28981E-01  0.17563E+00  0.00000E+00 -0.42227E-01  0.15747E+00  0.00000E+00 -0.27305E-01  0.17009E+00  0.00000E+00 -0.40002E-01
          0.12131E+00  0.00000E+00 -0.46407E-01  0.13401E+00  0.00000E+00 -0.51995E-01  0.11270E+00  0.00000E+00 -0.48450E-01  0.11861E+00  0.00000E+00 -0.62436E-01  0.10005E+00  0.00000E+00 -0.60215E-01  0.10685E+00  0.00000E+00 -0.69799E-01
          0.95363E-01  0.00000E+00 -0.65590E-01  0.10912E+00  0.00000E+00 -0.71007E-01  0.90490E-01  0.00000E+00 -0.82087E-01  0.12572E+00  0.00000E+00 -0.76921E-01  0.81394E-01  0.00000E+00 -0.92379E-01  0.11408E+00  0.00000E+00 -0.89137E-01
          0.69768E-01  0.00000E+00 -0.10829E+00  0.58326E-01  0.00000E+00 -0.98572E-01  0.37356E-01  0.00000E+00 -0.10943E+00  0.41890E-01  0.00000E+00 -0.11055E+00  0.34169E-01  0.00000E+00 -0.11361E+00  0.36856E-01  0.00000E+00 -0.11417E+00
          0.24970E+00  0.00000E+00  0.28915E-03  0.24628E+00  0.00000E+00 -0.42942E-02  0.21445E+00  0.00000E+00 -0.14961E-01  0.27005E+00  0.00000E+00 -0.97555E-02  0.22693E+00  0.00000E+00 -0.16277E-01  0.25408E+00  0.00000E+00 -0.16920E-01
          0.22423E+00  0.00000E+00 -0.16523E-01  0.24470E+00  0.00000E+00 -0.26905E-01  0.20731E+00  0.00000E+00 -0.30774E-01  0.22420E+00  0.00000E+00 -0.42523E-01  0.19029E+00  0.00000E+00 -0.44784E-01  0.20786E+00  0.00000E+00 -0.56025E-01
          0.18242E+00  0.00000E+00 -0.50768E-01  0.18166E+00  0.00000E+00 -0.66541E-01  0.16121E+00  0.00000E+00 -0.60784E-01  0.17063E+00  0.00000E+00 -0.69125E-01  0.13909E+00  0.00000E+00 -0.75502E-01  0.14490E+00  0.00000E+00 -0.84968E-01
          0.12823E+00  0.00000E+00 -0.86246E-01  0.13439E+00  0.00000E+00 -0.92683E-01  0.11711E+00  0.00000E+00 -0.99957E-01  0.13997E+00  0.00000E+00 -0.98205E-01  0.10944E+00  0.00000E+00 -0.10855E+00  0.11141E+00  0.00000E+00 -0.99238E-01
          0.10215E+00  0.00000E+00 -0.10697E+00  0.65106E-01  0.00000E+00 -0.12558E+00  0.59815E-01  0.00000E+00 -0.11293E+00  0.55807E-01  0.00000E+00 -0.11958E+00  0.54829E-01  0.00000E+00 -0.12300E+00  0.52889E-01  0.00000E+00 -0.12273E+00
          0.30274E+00  0.00000E+00 -0.55288E-03  0.33337E+00  0.00000E+00 -0.55727E-02  0.27131E+00  0.00000E+00 -0.82918E-02  0.32122E+00  0.00000E+00 -0.15757E-01  0.29647E+00  0.00000E+00 -0.20478E-01  0.30736E+00  0.00000E+00 -0.22585E-01
          0.28494E+00  0.00000E+00 -0.27011E-01  0.26511E+00  0.00000E+00 -0.27213E-01  0.24180E+00  0.00000E+00 -0.30456E-01  0.25819E+00  0.00000E+00 -0.32883E-01  0.23711E+00  0.00000E+00 -0.44221E-01  0.23463E+00  0.00000E+00 -0.41764E-01
          0.22207E+00  0.00000E+00 -0.40803E-01  0.21039E+00  0.00000E+00 -0.66242E-01  0.18494E+00  0.00000E+00 -0.61164E-01  0.17200E+00  0.00000E+00 -0.75490E-01  0.17865E+00  0.00000E+00 -0.73134E-01  0.17928E+00  0.00000E+00 -0.73093E-01
          0.16557E+00  0.00000E+00 -0.92996E-01  0.15838E+00  0.00000E+00 -0.92732E-01  0.14069E+00  0.00000E+00 -0.11046E+00  0.14498E+00  0.00000E+00 -0.95238E-01  0.14009E+00  0.00000E+00 -0.11338E+00  0.98631E-01  0.00000E+00 -0.13021E+00
          0.12139E+00  0.00000E+00 -0.11700E+00  0.10756E+00  0.00000E+00 -0.12699E+00  0.67055E-01  0.00000E+00 -0.13831E+00  0.81916E-01  0.00000E+00 -0.14108E+00  0.67730E-01  0.00000E+00 -0.14091E+00  0.69158E-01  0.00000E+00 -0.14204E+00
          0.34680E+00  0.00000E+00 -0.80908E-03  0.35460E+00  0.00000E+00 -0.60415E-02  0.33753E+00  0.00000E+00 -0.39893E-02  0.35826E+00  0.00000E+00 -0.57902E-02  0.34277E+00  0.00000E+00 -0.14368E-01  0.32514E+00  0.00000E+00 -0.12825E-01
          0.30968E+00  0.00000E+00 -0.21781E-01  0.27998E+00  0.00000E+00 -0.34116E-01  0.27199E+00  0.00000E+00 -0.33170E-01  0.25529E+00  0.00000E+00 -0.31929E-01  0.26353E+00  0.00000E+00 -0.44389E-01  0.25120E+00  0.00000E+00 -0.36582E-01
          0.25646E+00  0.00000E+00 -0.44509E-01  0.22697E+00  0.00000E+00 -0.47360E-01  0.23218E+00  0.00000E+00 -0.59596E-01  0.22455E+00  0.00000E+00 -0.51107E-01  0.19689E+00  0.00000E+00 -0.68046E-01  0.21388E+00  0.00000E+00 -0.71414E-01
          0.18524E+00  0.00000E+00 -0.82811E-01  0.19286E+00  0.00000E+00 -0.88971E-01  0.17751E+00  0.00000E+00 -0.92725E-01  0.18431E+00  0.00000E+00 -0.91667E-01  0.17262E+00  0.00000E+00 -0.91962E-01  0.13544E+00  0.00000E+00 -0.13070E+00
          0.16962E+00  0.00000E+00 -0.12127E+00  0.13384E+00  0.00000E+00 -0.13162E+00  0.92895E-01  0.00000E+00 -0.14451E+00  0.11257E+00  0.00000E+00 -0.15499E+00  0.83619E-01  0.00000E+00 -0.15250E+00  0.85266E-01  0.00000E+00 -0.15444E+00
          0.36265E+00  0.00000E+00 -0.17696E-03  0.37204E+00  0.00000E+00 -0.63195E-02  0.37362E+00  0.00000E+00 -0.14348E-01  0.39485E+00  0.00000E+00 -0.19197E-01  0.36753E+00  0.00000E+00 -0.12222E-01  0.36369E+00  0.00000E+00 -0.10472E-01
          0.35226E+00  0.00000E+00 -0.22014E-01  0.33243E+00  0.00000E+00 -0.18344E-01  0.31219E+00  0.00000E+00 -0.29563E-01  0.28730E+00  0.00000E+00 -0.35811E-01  0.30032E+00  0.00000E+00 -0.44003E-01  0.28380E+00  0.00000E+00 -0.42409E-01
          0.28624E+00  0.00000E+00 -0.51208E-01  0.25806E+00  0.00000E+00 -0.58305E-01  0.27465E+00  0.00000E+00 -0.66233E-01  0.25311E+00  0.00000E+00 -0.65131E-01  0.25355E+00  0.00000E+00 -0.75051E-01  0.24480E+00  0.00000E+00 -0.73880E-01
          0.22622E+00  0.00000E+00 -0.79435E-01  0.22841E+00  0.00000E+00 -0.88847E-01  0.20651E+00  0.00000E+00 -0.92445E-01  0.21651E+00  0.00000E+00 -0.92180E-01  0.20560E+00  0.00000E+00 -0.94785E-01  0.17484E+00  0.00000E+00 -0.12332E+00
          0.19861E+00  0.00000E+00 -0.11170E+00  0.16801E+00  0.00000E+00 -0.12114E+00  0.11593E+00  0.00000E+00 -0.14146E+00  0.13505E+00  0.00000E+00 -0.14681E+00  0.11125E+00  0.00000E+00 -0.14932E+00  0.11365E+00  0.00000E+00 -0.14945E+00
          0.40279E+00  0.00000E+00 -0.64099E-03  0.41572E+00  0.00000E+00 -0.47011E-02  0.46147E+00  0.00000E+00 -0.13367E-01  0.42214E+00  0.00000E+00 -0.11037E-01  0.43825E+00  0.00000E+00 -0.23954E-01  0.40643E+00  0.00000E+00 -0.20349E-01
          0.38534E+00  0.00000E+00 -0.26623E-01  0.37286E+00  0.00000E+00 -0.17188E-01  0.35163E+00  0.00000E+00 -0.20613E-01  0.34248E+00  0.00000E+00 -0.28480E-01  0.33524E+00  0.00000E+00 -0.33045E-01  0.31102E+00  0.00000E+00 -0.49680E-01
          0.30513E+00  0.00000E+00 -0.46046E-01  0.30168E+00  0.00000E+00 -0.51896E-01  0.28131E+00  0.00000E+00 -0.62597E-01  0.27920E+00  0.00000E+00 -0.62156E-01  0.26103E+00  0.00000E+00 -0.67068E-01  0.27398E+00  0.00000E+00 -0.73987E-01
          0.25821E+00  0.00000E+00 -0.74338E-01  0.26590E+00  0.00000E+00 -0.84931E-01  0.23742E+00  0.00000E+00 -0.89029E-01  0.24601E+00  0.00000E+00 -0.88546E-01  0.23433E+00  0.00000E+00 -0.92139E-01  0.20330E+00  0.00000E+00 -0.11897E+00
          0.23208E+00  0.00000E+00 -0.10832E+00  0.19700E+00  0.00000E+00 -0.11856E+00  0.14314E+00  0.00000E+00 -0.14581E+00  0.16110E+00  0.00000E+00 -0.14712E+00  0.14080E+00  0.00000E+00 -0.15030E+00  0.14300E+00  0.00000E+00 -0.15085E+00
          0.43351E+00  0.00000E+00  0.59923E-03  0.48891E+00  0.00000E+00 -0.11287E-02  0.47809E+00  0.00000E+00 -0.45424E-02  0.45169E+00  0.00000E+00 -0.13679E-01  0.45926E+00  0.00000E+00 -0.15941E-01  0.43691E+00  0.00000E+00 -0.21124E-01
          0.42719E+00  0.00000E+00 -0.23253E-01  0.41936E+00  0.00000E+00 -0.30912E-01  0.39486E+00  0.00000E+00 -0.32020E-01  0.37912E+00  0.00000E+00 -0.33373E-01  0.36328E+00  0.00000E+00 -0.26406E-01  0.34841E+00  0.00000E+00 -0.31878E-01
          0.33024E+00  0.00000E+00 -0.35838E-01  0.33159E+00  0.00000E+00 -0.41916E-01  0.31104E+00  0.00000E+00 -0.49190E-01  0.31811E+00  0.00000E+00 -0.55800E-01  0.29668E+00  0.00000E+00 -0.61762E-01  0.30836E+00  0.00000E+00 -0.69297E-01
          0.28719E+00  0.00000E+00 -0.74462E-01  0.29297E+00  0.00000E+00 -0.84583E-01  0.27094E+00  0.00000E+00 -0.90168E-01  0.27739E+00  0.00000E+00 -0.88759E-01  0.26430E+00  0.00000E+00 -0.92443E-01  0.23413E+00  0.00000E+00 -0.11638E+00
          0.26252E+00  0.00000E+00 -0.10414E+00  0.22515E+00  0.00000E+00 -0.11594E+00  0.17366E+00  0.00000E+00 -0.14536E+00  0.18996E+00  0.00000E+00 -0.14226E+00  0.17828E+00  0.00000E+00 -0.14627E+00  0.17984E+00  0.00000E+00 -0.14688E+00
          0.49875E+00  0.00000E+00  0.27569E-04  0.52096E+00  0.00000E+00 -0.35558E-02  0.52221E+00  0.00000E+00 -0.83355E-02  0.49867E+00  0.00000E+00 -0.16659E-01  0.50242E+00  0.00000E+00 -0.15211E-01  0.48434E+00  0.00000E+00 -0.21548E-01
          0.47579E+00  0.00000E+00 -0.24569E-01  0.45259E+00  0.00000E+00 -0.29419E-01  0.44197E+00  0.00000E+00 -0.33557E-01  0.42370E+00  0.00000E+00 -0.36390E-01  0.41051E+00  0.00000E+00 -0.41942E-01  0.39053E+00  0.00000E+00 -0.50424E-01
          0.37846E+00  0.00000E+00 -0.42746E-01  0.38026E+00  0.00000E+00 -0.48410E-01  0.36061E+00  0.00000E+00 -0.49038E-01  0.36514E+00  0.00000E+00 -0.58977E-01  0.34066E+00  0.00000E+00 -0.65015E-01  0.34299E+00  0.00000E+00 -0.73048E-01
          0.32506E+00  0.00000E+00 -0.74861E-01  0.32824E+00  0.00000E+00 -0.84082E-01  0.30429E+00  0.00000E+00 -0.87226E-01  0.31165E+00  0.00000E+00 -0.90761E-01  0.29427E+00  0.00000E+00 -0.94053E-01  0.26917E+00  0.00000E+00 -0.11564E+00
          0.29017E+00  0.00000E+00 -0.10115E+00  0.25630E+00  0.00000E+00 -0.11459E+00  0.20770E+00  0.00000E+00 -0.14748E+00  0.22279E+00  0.00000E+00 -0.13776E+00  0.21937E+00  0.00000E+00 -0.14317E+00  0.21821E+00  0.00000E+00 -0.14441E+00
          0.53952E+00  0.00000E+00 -0.72647E-03  0.56321E+00  0.00000E+00 -0.39744E-02  0.56669E+00  0.00000E+00 -0.84781E-02  0.54293E+00  0.00000E+00 -0.15719E-01  0.54647E+00  0.00000E+00 -0.15859E-01  0.52790E+00  0.00000E+00 -0.21889E-01
          0.51726E+00  0.00000E+00 -0.24766E-01  0.49742E+00  0.00000E+00 -0.29617E-01  0.48704E+00  0.00000E+00 -0.31318E-01  0.47185E+00  0.00000E+00 -0.40496E-01  0.46015E+00  0.00000E+00 -0.43039E-01  0.43809E+00  0.00000E+00 -0.49140E-01
          0.42035E+00  0.00000E+00 -0.46713E-01  0.40096E+00  0.00000E+00 -0.57478E-01  0.39828E+00  0.00000E+00 -0.61911E-01  0.38333E+00  0.00000E+00 -0.64457E-01  0.40798E+00  0.00000E+00 -0.79891E-01  0.37877E+00  0.00000E+00 -0.80618E-01
          0.35919E+00  0.00000E+00 -0.80379E-01  0.36375E+00  0.00000E+00 -0.92046E-01  0.33604E+00  0.00000E+00 -0.94005E-01  0.34495E+00  0.00000E+00 -0.98650E-01  0.32802E+00  0.00000E+00 -0.10032E+00  0.30265E+00  0.00000E+00 -0.11868E+00
          0.32325E+00  0.00000E+00 -0.10543E+00  0.29042E+00  0.00000E+00 -0.11869E+00  0.24603E+00  0.00000E+00 -0.15335E+00  0.25910E+00  0.00000E+00 -0.14045E+00  0.25980E+00  0.00000E+00 -0.14632E+00  0.25677E+00  0.00000E+00 -0.14785E+00
          0.58124E+00  0.00000E+00 -0.81293E-03  0.60355E+00  0.00000E+00 -0.39752E-02  0.60912E+00  0.00000E+00 -0.87134E-02  0.58686E+00  0.00000E+00 -0.14191E-01  0.59115E+00  0.00000E+00 -0.14956E-01  0.57183E+00  0.00000E+00 -0.21713E-01
          0.56255E+00  0.00000E+00 -0.24966E-01  0.54233E+00  0.00000E+00 -0.30612E-01  0.52984E+00  0.00000E+00 -0.32678E-01  0.51457E+00  0.00000E+00 -0.40603E-01  0.50343E+00  0.00000E+00 -0.45146E-01  0.48248E+00  0.00000E+00 -0.44913E-01
          0.46952E+00  0.00000E+00 -0.51205E-01  0.44732E+00  0.00000E+00 -0.60026E-01  0.43095E+00  0.00000E+00 -0.55761E-01  0.41543E+00  0.00000E+00 -0.64996E-01  0.43345E+00  0.00000E+00 -0.73952E-01  0.40714E+00  0.00000E+00 -0.81448E-01
          0.38964E+00  0.00000E+00 -0.81846E-01  0.39562E+00  0.00000E+00 -0.93712E-01  0.36672E+00  0.00000E+00 -0.10235E+00  0.37317E+00  0.00000E+00 -0.10189E+00  0.35874E+00  0.00000E+00 -0.10711E+00  0.33253E+00  0.00000E+00 -0.12402E+00
          0.35379E+00  0.00000E+00 -0.11174E+00  0.32605E+00  0.00000E+00 -0.12525E+00  0.28414E+00  0.00000E+00 -0.16006E+00  0.29862E+00  0.00000E+00 -0.14551E+00  0.29986E+00  0.00000E+00 -0.15154E+00  0.29508E+00  0.00000E+00 -0.15340E+00
          0.62122E+00  0.00000E+00 -0.74107E-03  0.64180E+00  0.00000E+00 -0.37309E-02  0.64815E+00  0.00000E+00 -0.99899E-02  0.62847E+00  0.00000E+00 -0.12131E-01  0.63420E+00  0.00000E+00 -0.12829E-01  0.61526E+00  0.00000E+00 -0.20257E-01
          0.60769E+00  0.00000E+00 -0.23443E-01  0.58791E+00  0.00000E+00 -0.29707E-01  0.57591E+00  0.00000E+00 -0.32631E-01  0.55843E+00  0.00000E+00 -0.41003E-01  0.54779E+00  0.00000E+00 -0.45089E-01  0.53014E+00  0.00000E+00 -0.48085E-01
          0.51596E+00  0.00000E+00 -0.52573E-01  0.49965E+00  0.00000E+00 -0.57494E-01  0.47842E+00  0.00000E+00 -0.60881E-01  0.46428E+00  0.00000E+00 -0.59536E-01  0.43550E+00  0.00000E+00 -0.76611E-01  0.43611E+00  0.00000E+00 -0.75850E-01
          0.42013E+00  0.00000E+00 -0.77180E-01  0.42793E+00  0.00000E+00 -0.85156E-01  0.39766E+00  0.00000E+00 -0.96511E-01  0.40598E+00  0.00000E+00 -0.98047E-01  0.39150E+00  0.00000E+00 -0.10204E+00  0.36456E+00  0.00000E+00 -0.12110E+00
          0.38116E+00  0.00000E+00 -0.10918E+00  0.36421E+00  0.00000E+00 -0.12639E+00  0.32123E+00  0.00000E+00 -0.16246E+00  0.33880E+00  0.00000E+00 -0.14753E+00  0.33704E+00  0.00000E+00 -0.15301E+00  0.33167E+00  0.00000E+00 -0.15516E+00
          0.66054E+00  0.00000E+00 -0.56128E-03  0.67945E+00  0.00000E+00 -0.36086E-02  0.68522E+00  0.00000E+00 -0.13352E-01  0.66801E+00  0.00000E+00 -0.10333E-01  0.67580E+00  0.00000E+00 -0.11293E-01  0.65669E+00  0.00000E+00 -0.19487E-01
          0.65057E+00  0.00000E+00 -0.20448E-01  0.63180E+00  0.00000E+00 -0.27622E-01  0.62062E+00  0.00000E+00 -0.31186E-01  0.60344E+00  0.00000E+00 -0.39222E-01  0.59297E+00  0.00000E+00 -0.44681E-01  0.57379E+00  0.00000E+00 -0.48763E-01
          0.56001E+00  0.00000E+00 -0.52263E-01  0.54518E+00  0.00000E+00 -0.56319E-01  0.52758E+00  0.00000E+00 -0.63257E-01  0.50626E+00  0.00000E+00 -0.68114E-01  0.49286E+00  0.00000E+00 -0.68438E-01  0.46323E+00  0.00000E+00 -0.84625E-01
          0.44988E+00  0.00000E+00 -0.87013E-01  0.46241E+00  0.00000E+00 -0.86518E-01  0.43903E+00  0.00000E+00 -0.97452E-01  0.44367E+00  0.00000E+00 -0.10224E+00  0.43197E+00  0.00000E+00 -0.10321E+00  0.40818E+00  0.00000E+00 -0.11651E+00
          0.42032E+00  0.00000E+00 -0.10595E+00  0.40652E+00  0.00000E+00 -0.12212E+00  0.36772E+00  0.00000E+00 -0.15737E+00  0.38559E+00  0.00000E+00 -0.14422E+00  0.38269E+00  0.00000E+00 -0.14840E+00  0.37720E+00  0.00000E+00 -0.15054E+00
          0.70358E+00  0.00000E+00  0.19452E-03  0.70913E+00  0.00000E+00 -0.46027E-02  0.74653E+00  0.00000E+00 -0.12693E-01  0.70543E+00  0.00000E+00 -0.87880E-02  0.73437E+00  0.00000E+00 -0.18864E-01  0.69325E+00  0.00000E+00 -0.18983E-01