<?xml version="1.0"?>
<VTKFile type="UnstructuredGrid" version="0.1" byte_order="LittleEndian" compressor="vtkZLibDataCompressor">
<UnstructuredGrid>
  <Piece NumberOfPoints="1800"        NumberOfCells="1"      >
    <Points>
      <DataArray type="Float32" NumberOfComponents="3" format="ascii" >
        0.41000E-01  0.00000E+00  0.24902E-02  0.26827E-01  0.00000E+00  0.39645E-02  0.11866E-01  0.00000E+00  0.44011E-02  0.19682E-01  0.00000E+00  0.10122E-01  0.67879E-02  0.00000E+00  0.11468E-01  0.89906E-02  0.00000E+00  0.18020E-01
        0.81041E-02  0.00000E+00  0.23734E-01  0.10181E-01  0.00000E+00  0.29615E-01  0.80656E-02  0.00000E+00  0.35678E-01  0.90020E-02  0.00000E+00  0.42047E-01  0.82483E-02  0.00000E+00  0.48278E-01  0.10074E-01  0.00000E+00  0.54185E-01
        0.96968E-02  0.00000E+00  0.59864E-01  0.11133E-01  0.00000E+00  0.65322E-01  0.11071E-01  0.00000E+00  0.70412E-01  0.11645E-01  0.00000E+00  0.75414E-01  0.11620E-01  0.00000E+00  0.80197E-01  0.11640E-01  0.00000E+00  0.84969E-01
        0.11442E-01  0.00000E+00  0.89745E-01  0.11240E-01  0.00000E+00  0.94584E-01  0.10940E-01  0.00000E+00  0.99430E-01  0.10624E-01  0.00000E+00  0.10432E+00  0.10318E-01  0.00000E+00  0.10934E+00  0.99980E-02  0.00000E+00  0.11443E+00
        0.94723E-02  0.00000E+00  0.11945E+00  0.88732E-02  0.00000E+00  0.12458E+00  0.89370E-02  0.00000E+00  0.13031E+00  0.90102E-02  0.00000E+00  0.13628E+00  0.69507E-02  0.00000E+00  0.14116E+00  0.71716E-02  0.00000E+00  0.14498E+00
        0.54922E-01  0.00000E+00  0.35651E-02  0.33677E-01  0.00000E+00  0.10674E-01  0.48203E-01  0.00000E+00  0.11036E-01  0.40800E-01  0.00000E+00  0.16757E-01  0.24701E-01  0.00000E+00  0.16826E-01  0.34989E-01  0.00000E+00  0.23416E-01
        0.21834E-01  0.00000E+00  0.24329E-01  0.32441E-01  0.00000E+00  0.30843E-01  0.21520E-01  0.00000E+00  0.33555E-01  0.31826E-01  0.00000E+00  0.39309E-01  0.21220E-01  0.00000E+00  0.43117E-01  0.31449E-01  0.00000E+00  0.48047E-01
        0.21903E-01  0.00000E+00  0.52848E-01  0.32401E-01  0.00000E+00  0.57343E-01  0.23822E-01  0.00000E+00  0.62810E-01  0.32737E-01  0.00000E+00  0.67199E-01  0.27232E-01  0.00000E+00  0.72794E-01  0.31245E-01  0.00000E+00  0.78176E-01
        0.29603E-01  0.00000E+00  0.83663E-01  0.29917E-01  0.00000E+00  0.89316E-01  0.29346E-01  0.00000E+00  0.94951E-01  0.28914E-01  0.00000E+00  0.10057E+00  0.28326E-01  0.00000E+00  0.10612E+00  0.27853E-01  0.00000E+00  0.11200E+00
        0.27040E-01  0.00000E+00  0.11789E+00  0.27097E-01  0.00000E+00  0.12300E+00  0.25293E-01  0.00000E+00  0.12893E+00  0.25972E-01  0.00000E+00  0.13614E+00  0.24075E-01  0.00000E+00  0.14021E+00  0.24395E-01  0.00000E+00  0.14441E+00
        0.72167E-01  0.00000E+00  0.33702E-02  0.62662E-01  0.00000E+00  0.94694E-02  0.79021E-01  0.00000E+00  0.10746E-01  0.69000E-01  0.00000E+00  0.16091E-01  0.54657E-01  0.00000E+00  0.18340E-01  0.63024E-01  0.00000E+00  0.23453E-01
        0.47275E-01  0.00000E+00  0.25603E-01  0.57134E-01  0.00000E+00  0.30460E-01  0.44031E-01  0.00000E+00  0.33755E-01  0.54694E-01  0.00000E+00  0.38695E-01  0.43032E-01  0.00000E+00  0.42583E-01  0.53754E-01  0.00000E+00  0.47481E-01
        0.42492E-01  0.00000E+00  0.51680E-01  0.53219E-01  0.00000E+00  0.56613E-01  0.43155E-01  0.00000E+00  0.61350E-01  0.52494E-01  0.00000E+00  0.66352E-01  0.45344E-01  0.00000E+00  0.71493E-01  0.50362E-01  0.00000E+00  0.76924E-01
        0.47552E-01  0.00000E+00  0.82401E-01  0.48228E-01  0.00000E+00  0.88180E-01  0.47302E-01  0.00000E+00  0.93866E-01  0.46950E-01  0.00000E+00  0.99603E-01  0.46048E-01  0.00000E+00  0.10525E+00  0.45651E-01  0.00000E+00  0.11119E+00
        0.44692E-01  0.00000E+00  0.11711E+00  0.44169E-01  0.00000E+00  0.12242E+00  0.43319E-01  0.00000E+00  0.12852E+00  0.42888E-01  0.00000E+00  0.13558E+00  0.41645E-01  0.00000E+00  0.13964E+00  0.41688E-01  0.00000E+00  0.14407E+00
        0.10520E+00  0.00000E+00  0.33778E-02  0.87939E-01  0.00000E+00  0.58215E-02  0.97095E-01  0.00000E+00  0.10223E-01  0.93567E-01  0.00000E+00  0.18024E-01  0.81035E-01  0.00000E+00  0.19267E-01  0.88191E-01  0.00000E+00  0.25564E-01
        0.73520E-01  0.00000E+00  0.26346E-01  0.82188E-01  0.00000E+00  0.32779E-01  0.68214E-01  0.00000E+00  0.34303E-01  0.77887E-01  0.00000E+00  0.40305E-01  0.65462E-01  0.00000E+00  0.42818E-01  0.75805E-01  0.00000E+00  0.48740E-01
        0.64193E-01  0.00000E+00  0.51874E-01  0.74444E-01  0.00000E+00  0.57743E-01  0.63462E-01  0.00000E+00  0.61482E-01  0.72759E-01  0.00000E+00  0.67019E-01  0.64490E-01  0.00000E+00  0.71328E-01  0.69602E-01  0.00000E+00  0.77045E-01
        0.65978E-01  0.00000E+00  0.82321E-01  0.66733E-01  0.00000E+00  0.88107E-01  0.65291E-01  0.00000E+00  0.93719E-01  0.65121E-01  0.00000E+00  0.99461E-01  0.63953E-01  0.00000E+00  0.10506E+00  0.63432E-01  0.00000E+00  0.11099E+00
        0.62573E-01  0.00000E+00  0.11688E+00  0.61704E-01  0.00000E+00  0.12206E+00  0.61159E-01  0.00000E+00  0.12817E+00  0.60290E-01  0.00000E+00  0.13520E+00  0.60478E-01  0.00000E+00  0.13918E+00  0.60001E-01  0.00000E+00  0.14351E+00
        0.13156E+00  0.00000E+00  0.33928E-02  0.11835E+00  0.00000E+00  0.65608E-02  0.10913E+00  0.00000E+00  0.12678E-01  0.11968E+00  0.00000E+00  0.17121E-01  0.10603E+00  0.00000E+00  0.21083E-01  0.11610E+00  0.00000E+00  0.25348E-01
        0.99334E-01  0.00000E+00  0.27277E-01  0.10832E+00  0.00000E+00  0.32684E-01  0.93899E-01  0.00000E+00  0.35470E-01  0.10266E+00  0.00000E+00  0.41005E-01  0.88932E-01  0.00000E+00  0.43416E-01  0.98113E-01  0.00000E+00  0.49182E-01
        0.86244E-01  0.00000E+00  0.52240E-01  0.95573E-01  0.00000E+00  0.58449E-01  0.84573E-01  0.00000E+00  0.61795E-01  0.92752E-01  0.00000E+00  0.67880E-01  0.84374E-01  0.00000E+00  0.71770E-01  0.88546E-01  0.00000E+00  0.77942E-01
        0.84580E-01  0.00000E+00  0.82962E-01  0.85101E-01  0.00000E+00  0.88791E-01  0.83498E-01  0.00000E+00  0.94403E-01  0.83156E-01  0.00000E+00  0.10008E+00  0.82027E-01  0.00000E+00  0.10566E+00  0.81312E-01  0.00000E+00  0.11154E+00
        0.80469E-01  0.00000E+00  0.11734E+00  0.79785E-01  0.00000E+00  0.12249E+00  0.78979E-01  0.00000E+00  0.12851E+00  0.78523E-01  0.00000E+00  0.13546E+00  0.77856E-01  0.00000E+00  0.13929E+00  0.77870E-01  0.00000E+00  0.14367E+00
        0.15109E+00  0.00000E+00  0.32711E-02  0.14178E+00  0.00000E+00  0.86770E-02  0.12870E+00  0.00000E+00  0.12467E-01  0.15157E+00  0.00000E+00  0.14371E-01  0.13734E+00  0.00000E+00  0.17660E-01  0.14599E+00  0.00000E+00  0.21955E-01
        0.12914E+00  0.00000E+00  0.23522E-01  0.13106E+00  0.00000E+00  0.31767E-01  0.12013E+00  0.00000E+00  0.33320E-01  0.12545E+00  0.00000E+00  0.40668E-01  0.11297E+00  0.00000E+00  0.42201E-01  0.11777E+00  0.00000E+00  0.49973E-01
        0.10764E+00  0.00000E+00  0.52639E-01  0.11524E+00  0.00000E+00  0.60164E-01  0.10519E+00  0.00000E+00  0.62882E-01  0.11185E+00  0.00000E+00  0.69602E-01  0.10404E+00  0.00000E+00  0.73153E-01  0.10700E+00  0.00000E+00  0.79689E-01
        0.10277E+00  0.00000E+00  0.84460E-01  0.10352E+00  0.00000E+00  0.90405E-01  0.10134E+00  0.00000E+00  0.95898E-01  0.10137E+00  0.00000E+00  0.10156E+00  0.10008E+00  0.00000E+00  0.10708E+00  0.99291E-01  0.00000E+00  0.11293E+00
        0.98728E-01  0.00000E+00  0.11865E+00  0.97800E-01  0.00000E+00  0.12363E+00  0.97143E-01  0.00000E+00  0.12972E+00  0.96795E-01  0.00000E+00  0.13664E+00  0.96656E-01  0.00000E+00  0.14018E+00  0.96411E-01  0.00000E+00  0.14448E+00
        0.17139E+00  0.00000E+00  0.31084E-02  0.18190E+00  0.00000E+00  0.76651E-02  0.16147E+00  0.00000E+00  0.85848E-02  0.17768E+00  0.00000E+00  0.14968E-01  0.16506E+00  0.00000E+00  0.16263E-01  0.17238E+00  0.00000E+00  0.21994E-01
        0.15939E+00  0.00000E+00  0.23637E-01  0.15330E+00  0.00000E+00  0.29426E-01  0.14154E+00  0.00000E+00  0.30110E-01  0.14052E+00  0.00000E+00  0.38449E-01  0.13796E+00  0.00000E+00  0.46151E-01  0.12874E+00  0.00000E+00  0.49248E-01
        0.13760E+00  0.00000E+00  0.56692E-01  0.12595E+00  0.00000E+00  0.58714E-01  0.13364E+00  0.00000E+00  0.65508E-01  0.12595E+00  0.00000E+00  0.68682E-01  0.12510E+00  0.00000E+00  0.75357E-01  0.12422E+00  0.00000E+00  0.80899E-01
        0.12111E+00  0.00000E+00  0.86094E-01  0.12209E+00  0.00000E+00  0.92081E-01  0.11953E+00  0.00000E+00  0.97376E-01  0.11988E+00  0.00000E+00  0.10304E+00  0.11858E+00  0.00000E+00  0.10849E+00  0.11768E+00  0.00000E+00  0.11427E+00
        0.11731E+00  0.00000E+00  0.11993E+00  0.11664E+00  0.00000E+00  0.12480E+00  0.11579E+00  0.00000E+00  0.13088E+00  0.11578E+00  0.00000E+00  0.13779E+00  0.11523E+00  0.00000E+00  0.14108E+00  0.11512E+00  0.00000E+00  0.14535E+00
        0.19358E+00  0.00000E+00  0.33223E-02  0.20444E+00  0.00000E+00  0.85499E-02  0.19376E+00  0.00000E+00  0.12690E-01  0.21425E+00  0.00000E+00  0.13576E-01  0.20242E+00  0.00000E+00  0.18884E-01  0.18848E+00  0.00000E+00  0.19730E-01
        0.18353E+00  0.00000E+00  0.26872E-01  0.17078E+00  0.00000E+00  0.30259E-01  0.16446E+00  0.00000E+00  0.36059E-01  0.15341E+00  0.00000E+00  0.37995E-01  0.15867E+00  0.00000E+00  0.45738E-01  0.14806E+00  0.00000E+00  0.47778E-01
        0.15719E+00  0.00000E+00  0.55141E-01  0.14744E+00  0.00000E+00  0.58169E-01  0.15324E+00  0.00000E+00  0.65374E-01  0.14607E+00  0.00000E+00  0.68854E-01  0.14331E+00  0.00000E+00  0.75068E-01  0.14325E+00  0.00000E+00  0.80803E-01
        0.14006E+00  0.00000E+00  0.85712E-01  0.14095E+00  0.00000E+00  0.91694E-01  0.13847E+00  0.00000E+00  0.97084E-01  0.13877E+00  0.00000E+00  0.10262E+00  0.13768E+00  0.00000E+00  0.10815E+00  0.13666E+00  0.00000E+00  0.11387E+00
        0.13652E+00  0.00000E+00  0.11947E+00  0.13580E+00  0.00000E+00  0.12434E+00  0.13489E+00  0.00000E+00  0.13042E+00  0.13508E+00  0.00000E+00  0.13728E+00  0.13462E+00  0.00000E+00  0.14051E+00  0.13437E+00  0.00000E+00  0.14482E+00
[...]
<PointData>
      <DataArray type="Float32" Name="Velocity vectors"  NumberOfComponents="3"  format="ascii" >
          0.83369E-01  0.00000E+00  0.65434E-03  0.73487E-01  0.00000E+00 -0.16092E-02  0.66885E-01  0.00000E+00 -0.15613E-01  0.56488E-01  0.00000E+00 -0.12070E-01 -0.65413E-02  0.00000E+00 -0.52867E-01  0.15231E-01  0.00000E+00 -0.50441E-01
          0.13684E-02  0.00000E+00 -0.59369E-01  0.31780E-01  0.00000E+00 -0.72189E-01 -0.21111E-02  0.00000E+00 -0.80417E-01  0.70099E-02  0.00000E+00 -0.79458E-01 -0.95822E-02  0.00000E+00 -0.80466E-01  0.69346E-02  0.00000E+00 -0.82846E-01
         -0.15264E-01  0.00000E+00 -0.79171E-01  0.95842E-02  0.00000E+00 -0.76531E-01  0.13440E-02  0.00000E+00 -0.75016E-01  0.16391E-01  0.00000E+00 -0.72487E-01  0.17566E-01  0.00000E+00 -0.74985E-01  0.22027E-01  0.00000E+00 -0.78963E-01
          0.23128E-01  0.00000E+00 -0.83695E-01  0.23688E-01  0.00000E+00 -0.88248E-01  0.22240E-01  0.00000E+00 -0.93704E-01  0.21781E-01  0.00000E+00 -0.98682E-01  0.21662E-01  0.00000E+00 -0.10329E+00  0.20096E-01  0.00000E+00 -0.10961E+00
          0.16028E-01  0.00000E+00 -0.11769E+00  0.14472E-01  0.00000E+00 -0.12277E+00  0.17190E-01  0.00000E+00 -0.12574E+00  0.10296E-01  0.00000E+00 -0.13320E+00  0.44403E-02  0.00000E+00 -0.14410E+00  0.51403E-02  0.00000E+00 -0.14983E+00
          0.10610E+00  0.00000E+00 -0.32222E-02  0.78866E-01  0.00000E+00 -0.63093E-02  0.88973E-01  0.00000E+00 -0.12164E-01  0.85991E-01  0.00000E+00 -0.11885E-01  0.53185E-01  0.00000E+00 -0.21167E-01  0.46481E-01  0.00000E+00 -0.33287E-01
          0.18363E-01  0.00000E+00 -0.38729E-01  0.34707E-01  0.00000E+00 -0.40927E-01  0.21327E-01  0.00000E+00 -0.46473E-01  0.29073E-01  0.00000E+00 -0.51413E-01  0.10505E-01  0.00000E+00 -0.60613E-01  0.17868E-01  0.00000E+00 -0.59217E-01
          0.39811E-02  0.00000E+00 -0.71139E-01  0.21000E-01  0.00000E+00 -0.77520E-01 -0.17553E-01  0.00000E+00 -0.83630E-01  0.50126E-01  0.00000E+00 -0.95560E-01 -0.29352E-01  0.00000E+00 -0.10393E+00  0.63298E-01  0.00000E+00 -0.12360E+00
          0.24227E-01  0.00000E+00 -0.12150E+00  0.47640E-01  0.00000E+00 -0.12518E+00  0.41879E-01  0.00000E+00 -0.13117E+00  0.42482E-01  0.00000E+00 -0.13424E+00  0.39319E-01  0.00000E+00 -0.13711E+00  0.39657E-01  0.00000E+00 -0.13933E+00
          0.33917E-01  0.00000E+00 -0.14422E+00  0.40315E-01  0.00000E+00 -0.14895E+00  0.27354E-01  0.00000E+00 -0.14866E+00  0.31718E-01  0.00000E+00 -0.15233E+00  0.26187E-01  0.00000E+00 -0.16323E+00  0.27040E-01  0.00000E+00 -0.16507E+00
          0.11336E+00  0.00000E+00 -0.14998E-02  0.10797E+00  0.00000E+00 -0.39459E-02  0.14022E+00  0.00000E+00 -0.18540E-01  0.13293E+00  0.00000E+00 -0.19108E-01  0.10587E+00  0.00000E+00 -0.23170E-01  0.10552E+00  0.00000E+00 -0.26910E-01
          0.71196E-01  0.00000E+00 -0.33784E-01  0.70941E-01  0.00000E+00 -0.43782E-01  0.41898E-01  0.00000E+00 -0.47791E-01  0.53401E-01  0.00000E+00 -0.56654E-01  0.39100E-01  0.00000E+00 -0.58115E-01  0.49999E-01  0.00000E+00 -0.66421E-01
          0.37537E-01  0.00000E+00 -0.70447E-01  0.55817E-01  0.00000E+00 -0.81500E-01  0.24559E-01  0.00000E+00 -0.87230E-01  0.84416E-01  0.00000E+00 -0.94157E-01  0.36448E-03  0.00000E+00 -0.10934E+00  0.10166E+00  0.00000E+00 -0.12989E+00
          0.33990E-01  0.00000E+00 -0.13348E+00  0.73056E-01  0.00000E+00 -0.13417E+00  0.57432E-01  0.00000E+00 -0.14339E+00  0.62030E-01  0.00000E+00 -0.14580E+00  0.52671E-01  0.00000E+00 -0.14895E+00  0.55843E-01  0.00000E+00 -0.15155E+00
          0.48896E-01  0.00000E+00 -0.15716E+00  0.48671E-01  0.00000E+00 -0.16068E+00  0.44392E-01  0.00000E+00 -0.15963E+00  0.43814E-01  0.00000E+00 -0.16399E+00  0.39956E-01  0.00000E+00 -0.17153E+00  0.41097E-01  0.00000E+00 -0.17320E+00
          0.17525E+00  0.00000E+00 -0.55750E-03  0.14795E+00  0.00000E+00 -0.53388E-02  0.16146E+00  0.00000E+00 -0.15194E-01  0.14009E+00  0.00000E+00 -0.22324E-01  0.13478E+00  0.00000E+00 -0.16571E-01  0.13758E+00  0.00000E+00 -0.22628E-01
          0.11299E+00  0.00000E+00 -0.31878E-01  0.11096E+00  0.00000E+00 -0.36918E-01  0.80951E-01  0.00000E+00 -0.46396E-01  0.87442E-01  0.00000E+00 -0.53296E-01  0.66792E-01  0.00000E+00 -0.60097E-01  0.84265E-01  0.00000E+00 -0.66426E-01
          0.69833E-01  0.00000E+00 -0.75757E-01  0.93115E-01  0.00000E+00 -0.82049E-01  0.63907E-01  0.00000E+00 -0.93729E-01  0.12027E+00  0.00000E+00 -0.93767E-01  0.41188E-01  0.00000E+00 -0.11380E+00  0.14070E+00  0.00000E+00 -0.12776E+00
          0.58552E-01  0.00000E+00 -0.14203E+00  0.10181E+00  0.00000E+00 -0.13800E+00  0.72527E-01  0.00000E+00 -0.15050E+00  0.84000E-01  0.00000E+00 -0.15249E+00  0.69445E-01  0.00000E+00 -0.15607E+00  0.71523E-01  0.00000E+00 -0.15915E+00
          0.66636E-01  0.00000E+00 -0.16457E+00  0.61639E-01  0.00000E+00 -0.16918E+00  0.60014E-01  0.00000E+00 -0.16840E+00  0.56643E-01  0.00000E+00 -0.17253E+00  0.58265E-01  0.00000E+00 -0.18010E+00  0.56690E-01  0.00000E+00 -0.18212E+00
          0.21098E+00  0.00000E+00 -0.28193E-03  0.19313E+00  0.00000E+00 -0.82799E-02  0.17506E+00  0.00000E+00 -0.12750E-01  0.18027E+00  0.00000E+00 -0.20506E-01  0.15271E+00  0.00000E+00 -0.22456E-01  0.16344E+00  0.00000E+00 -0.29987E-01
          0.14196E+00  0.00000E+00 -0.31827E-01  0.15728E+00  0.00000E+00 -0.44327E-01  0.12901E+00  0.00000E+00 -0.38985E-01  0.14578E+00  0.00000E+00 -0.53062E-01  0.10882E+00  0.00000E+00 -0.59340E-01  0.12987E+00  0.00000E+00 -0.70458E-01
          0.10831E+00  0.00000E+00 -0.79254E-01  0.13865E+00  0.00000E+00 -0.88455E-01  0.10646E+00  0.00000E+00 -0.10254E+00  0.16392E+00  0.00000E+00 -0.10380E+00  0.83388E-01  0.00000E+00 -0.12702E+00  0.17750E+00  0.00000E+00 -0.13025E+00
          0.89423E-01  0.00000E+00 -0.15265E+00  0.12506E+00  0.00000E+00 -0.14524E+00  0.93052E-01  0.00000E+00 -0.15717E+00  0.10130E+00  0.00000E+00 -0.15977E+00  0.88537E-01  0.00000E+00 -0.16225E+00  0.87288E-01  0.00000E+00 -0.16563E+00
          0.82311E-01  0.00000E+00 -0.17076E+00  0.79272E-01  0.00000E+00 -0.17415E+00  0.74808E-01  0.00000E+00 -0.17400E+00  0.73509E-01  0.00000E+00 -0.17799E+00  0.71342E-01  0.00000E+00 -0.18506E+00  0.71933E-01  0.00000E+00 -0.18687E+00
          0.22570E+00  0.00000E+00 -0.14024E-02  0.21273E+00  0.00000E+00 -0.91304E-02  0.19512E+00  0.00000E+00 -0.71952E-02  0.24549E+00  0.00000E+00 -0.22800E-01  0.20608E+00  0.00000E+00 -0.15840E-01  0.22681E+00  0.00000E+00 -0.42044E-01
          0.18219E+00  0.00000E+00 -0.26121E-01  0.19857E+00  0.00000E+00 -0.31059E-01  0.17780E+00  0.00000E+00 -0.45260E-01  0.19191E+00  0.00000E+00 -0.57639E-01  0.16328E+00  0.00000E+00 -0.61984E-01  0.17462E+00  0.00000E+00 -0.73382E-01
          0.15454E+00  0.00000E+00 -0.89327E-01  0.17981E+00  0.00000E+00 -0.83634E-01  0.14901E+00  0.00000E+00 -0.11035E+00  0.20626E+00  0.00000E+00 -0.10342E+00  0.12598E+00  0.00000E+00 -0.14019E+00  0.20128E+00  0.00000E+00 -0.12937E+00
          0.11028E+00  0.00000E+00 -0.15764E+00  0.14654E+00  0.00000E+00 -0.14862E+00  0.10372E+00  0.00000E+00 -0.16203E+00  0.11959E+00  0.00000E+00 -0.16359E+00  0.10295E+00  0.00000E+00 -0.16715E+00  0.99887E-01  0.00000E+00 -0.16968E+00
          0.98454E-01  0.00000E+00 -0.17492E+00  0.91437E-01  0.00000E+00 -0.17800E+00  0.88206E-01  0.00000E+00 -0.17716E+00  0.86919E-01  0.00000E+00 -0.18165E+00  0.86861E-01  0.00000E+00 -0.18811E+00  0.86159E-01  0.00000E+00 -0.18896E+00
          0.27750E+00  0.00000E+00 -0.17914E-02  0.30778E+00  0.00000E+00 -0.13124E-01  0.25236E+00  0.00000E+00 -0.19572E-01  0.27199E+00  0.00000E+00 -0.26340E-01  0.26768E+00  0.00000E+00 -0.24352E-01  0.26693E+00  0.00000E+00 -0.33297E-01
          0.24651E+00  0.00000E+00 -0.35178E-01  0.22272E+00  0.00000E+00 -0.55135E-01  0.20062E+00  0.00000E+00 -0.58668E-01  0.21909E+00  0.00000E+00 -0.56998E-01  0.20870E+00  0.00000E+00 -0.55803E-01  0.19279E+00  0.00000E+00 -0.73599E-01
          0.22259E+00  0.00000E+00 -0.78757E-01  0.18683E+00  0.00000E+00 -0.10109E+00  0.24604E+00  0.00000E+00 -0.91219E-01  0.18201E+00  0.00000E+00 -0.13439E+00  0.18682E+00  0.00000E+00 -0.12366E+00  0.18656E+00  0.00000E+00 -0.11893E+00
          0.11676E+00  0.00000E+00 -0.13771E+00  0.16910E+00  0.00000E+00 -0.12765E+00  0.11234E+00  0.00000E+00 -0.14589E+00  0.13835E+00  0.00000E+00 -0.14422E+00  0.11750E+00  0.00000E+00 -0.14961E+00  0.11106E+00  0.00000E+00 -0.15269E+00
          0.11222E+00  0.00000E+00 -0.15777E+00  0.10745E+00  0.00000E+00 -0.16112E+00  0.10171E+00  0.00000E+00 -0.16065E+00  0.10441E+00  0.00000E+00 -0.16427E+00  0.10327E+00  0.00000E+00 -0.17281E+00  0.10360E+00  0.00000E+00 -0.17413E+00
          0.31521E+00  0.00000E+00 -0.34067E-03  0.32579E+00  0.00000E+00 -0.10068E-01  0.31122E+00  0.00000E+00 -0.50216E-02  0.33690E+00  0.00000E+00 -0.13594E-01  0.32220E+00  0.00000E+00 -0.23504E-01  0.28737E+00  0.00000E+00 -0.24430E-01
          0.27327E+00  0.00000E+00 -0.41734E-01  0.24706E+00  0.00000E+00 -0.35988E-01  0.21805E+00  0.00000E+00 -0.58361E-01  0.20847E+00  0.00000E+00 -0.53178E-01  0.25367E+00  0.00000E+00 -0.64299E-01  0.22794E+00  0.00000E+00 -0.78186E-01
          0.25841E+00  0.00000E+00 -0.73105E-01  0.23277E+00  0.00000E+00 -0.98022E-01  0.28838E+00  0.00000E+00 -0.87837E-01  0.22423E+00  0.00000E+00 -0.12725E+00  0.18359E+00  0.00000E+00 -0.12442E+00  0.20966E+00  0.00000E+00 -0.11157E+00
          0.13920E+00  0.00000E+00 -0.14061E+00  0.18759E+00  0.00000E+00 -0.13038E+00  0.13199E+00  0.00000E+00 -0.14246E+00  0.15534E+00  0.00000E+00 -0.14435E+00  0.13966E+00  0.00000E+00 -0.14523E+00  0.13000E+00  0.00000E+00 -0.14946E+00
          0.13498E+00  0.00000E+00 -0.15471E+00  0.12891E+00  0.00000E+00 -0.15687E+00  0.12188E+00  0.00000E+00 -0.15728E+00  0.12647E+00  0.00000E+00 -0.16090E+00  0.12524E+00  0.00000E+00 -0.16941E+00  0.12469E+00  0.00000E+00 -0.17103E+00
          0.33838E+00  0.00000E+00  0.15024E-03  0.35469E+00  0.00000E+00 -0.12640E-01  0.35693E+00  0.00000E+00 -0.48037E-02  0.39224E+00  0.00000E+00 -0.26590E-01  0.34686E+00  0.00000E+00 -0.25511E-01  0.33700E+00  0.00000E+00 -0.16269E-01
          0.30627E+00  0.00000E+00 -0.41896E-01  0.29591E+00  0.00000E+00 -0.37307E-01  0.27297E+00  0.00000E+00 -0.53225E-01  0.25313E+00  0.00000E+00 -0.58566E-01  0.27930E+00  0.00000E+00 -0.61541E-01  0.25530E+00  0.00000E+00 -0.75102E-01
          0.28139E+00  0.00000E+00 -0.80192E-01  0.25083E+00  0.00000E+00 -0.97296E-01  0.27318E+00  0.00000E+00 -0.82601E-01  0.28392E+00  0.00000E+00 -0.68550E-01  0.18998E+00  0.00000E+00 -0.12459E+00  0.24762E+00  0.00000E+00 -0.10371E+00
          0.15518E+00  0.00000E+00 -0.14278E+00  0.20679E+00  0.00000E+00 -0.13545E+00  0.14641E+00  0.00000E+00 -0.14893E+00  0.17333E+00  0.00000E+00 -0.14917E+00  0.15520E+00  0.00000E+00 -0.15136E+00  0.14680E+00  0.00000E+00 -0.15466E+00
          0.15268E+00  0.00000E+00 -0.15953E+00  0.14739E+00  0.00000E+00 -0.16084E+00  0.14125E+00  0.00000E+00 -0.16074E+00  0.14660E+00  0.00000E+00 -0.16504E+00  0.14534E+00  0.00000E+00 -0.17258E+00  0.14512E+00  0.00000E+00 -0.17331E+00
          0.37438E+00  0.00000E+00  0.28189E-03  0.37447E+00  0.00000E+00 -0.78620E-02  0.43827E+00  0.00000E+00 -0.21240E-01  0.41365E+00  0.00000E+00 -0.25258E-01  0.41126E+00  0.00000E+00 -0.36321E-01  0.39214E+00  0.00000E+00 -0.35362E-01
          0.36235E+00  0.00000E+00 -0.47382E-01  0.35289E+00  0.00000E+00 -0.32350E-01  0.32017E+00  0.00000E+00 -0.51549E-01  0.30860E+00  0.00000E+00 -0.47035E-01  0.28465E+00  0.00000E+00 -0.70038E-01  0.28638E+00  0.00000E+00 -0.67968E-01
          0.28233E+00  0.00000E+00 -0.69266E-01  0.30358E+00  0.00000E+00 -0.67230E-01  0.25224E+00  0.00000E+00 -0.92089E-01  0.32808E+00  0.00000E+00 -0.91215E-01  0.24161E+00  0.00000E+00 -0.12825E+00  0.29254E+00  0.00000E+00 -0.10762E+00
          0.19706E+00  0.00000E+00 -0.14033E+00  0.22936E+00  0.00000E+00 -0.12431E+00  0.17142E+00  0.00000E+00 -0.14519E+00  0.18926E+00  0.00000E+00 -0.14454E+00  0.17353E+00  0.00000E+00 -0.14576E+00  0.16273E+00  0.00000E+00 -0.15075E+00
          0.16976E+00  0.00000E+00 -0.15563E+00  0.16554E+00  0.00000E+00 -0.15768E+00  0.15823E+00  0.00000E+00 -0.15808E+00  0.16611E+00  0.00000E+00 -0.16189E+00  0.16455E+00  0.00000E+00 -0.17000E+00  0.16444E+00  0.00000E+00 -0.17151E+00
          0.39378E+00  0.00000E+00 -0.27692E-02  0.44385E+00  0.00000E+00 -0.12314E-01  0.46360E+00  0.00000E+00 -0.99132E-02  0.44232E+00  0.00000E+00 -0.18059E-01  0.43043E+00  0.00000E+00 -0.24442E-01  0.41548E+00  0.00000E+00 -0.22508E-01
          0.40898E+00  0.00000E+00 -0.38926E-01  0.40226E+00  0.00000E+00 -0.44415E-01  0.37929E+00  0.00000E+00 -0.62709E-01  0.36612E+00  0.00000E+00 -0.54689E-01  0.34183E+00  0.00000E+00 -0.67266E-01  0.31909E+00  0.00000E+00 -0.79330E-01
          0.30055E+00  0.00000E+00 -0.81932E-01  0.33218E+00  0.00000E+00 -0.78104E-01  0.28966E+00  0.00000E+00 -0.10929E+00  0.35657E+00  0.00000E+00 -0.10038E+00  0.27884E+00  0.00000E+00 -0.12020E+00  0.29611E+00  0.00000E+00 -0.10253E+00
          0.21077E+00  0.00000E+00 -0.13437E+00  0.25648E+00  0.00000E+00 -0.11701E+00  0.19056E+00  0.00000E+00 -0.13897E+00  0.21476E+00  0.00000E+00 -0.13792E+00  0.19607E+00  0.00000E+00 -0.14011E+00  0.18436E+00  0.00000E+00 -0.14564E+00
          0.19283E+00  0.00000E+00 -0.15169E+00  0.18770E+00  0.00000E+00 -0.15312E+00  0.17957E+00  0.00000E+00 -0.15417E+00  0.18710E+00  0.00000E+00 -0.15852E+00  0.18482E+00  0.00000E+00 -0.16668E+00  0.18465E+00  0.00000E+00 -0.16828E+00
          0.46971E+00  0.00000E+00 -0.22916E-02  0.49471E+00  0.00000E+00 -0.10094E-01  0.49437E+00  0.00000E+00 -0.48503E-02  0.45990E+00  0.00000E+00 -0.20036E-01  0.45370E+00  0.00000E+00 -0.24336E-01  0.44410E+00  0.00000E+00 -0.18749E-01
          0.44190E+00  0.00000E+00 -0.30305E-01  0.43299E+00  0.00000E+00 -0.35851E-01  0.42034E+00  0.00000E+00 -0.46132E-01  0.40687E+00  0.00000E+00 -0.50198E-01  0.38662E+00  0.00000E+00 -0.66364E-01  0.36302E+00  0.00000E+00 -0.84171E-01
          0.34656E+00  0.00000E+00 -0.83745E-01  0.35752E+00  0.00000E+00 -0.74041E-01  0.31881E+00  0.00000E+00 -0.11527E+00  0.36288E+00  0.00000E+00 -0.10374E+00  0.29597E+00  0.00000E+00 -0.11912E+00  0.31552E+00  0.00000E+00 -0.10584E+00
          0.23603E+00  0.00000E+00 -0.13384E+00  0.27676E+00  0.00000E+00 -0.11968E+00  0.21314E+00  0.00000E+00 -0.13911E+00  0.23549E+00  0.00000E+00 -0.13823E+00  0.21775E+00  0.00000E+00 -0.13989E+00  0.20598E+00  0.00000E+00 -0.14505E+00
          0.21330E+00  0.00000E+00 -0.15075E+00  0.20842E+00  0.00000E+00 -0.15227E+00  0.19933E+00  0.00000E+00 -0.15335E+00  0.20692E+00  0.00000E+00 -0.15746E+00  0.20435E+00  0.00000E+00 -0.16531E+00  0.20409E+00  0.00000E+00 -0.16689E+00
          0.50805E+00  0.00000E+00 -0.10223E-02  0.52770E+00  0.00000E+00 -0.90825E-02  0.52216E+00  0.00000E+00 -0.45399E-02  0.49112E+00  0.00000E+00 -0.19301E-01  0.48494E+00  0.00000E+00 -0.22762E-01  0.47322E+00  0.00000E+00 -0.18313E-01
          0.47284E+00  0.00000E+00 -0.31539E-01  0.46678E+00  0.00000E+00 -0.34309E-01  0.45519E+00  0.00000E+00 -0.39643E-01  0.44006E+00  0.00000E+00 -0.44718E-01  0.42450E+00  0.00000E+00 -0.50053E-01  0.40454E+00  0.00000E+00 -0.65117E-01
          0.38399E+00  0.00000E+00 -0.78827E-01  0.37549E+00  0.00000E+00 -0.65872E-01  0.35595E+00  0.00000E+00 -0.11506E+00  0.33081E+00  0.00000E+00 -0.10078E+00  0.35443E+00  0.00000E+00 -0.96180E-01  0.31889E+00  0.00000E+00 -0.10235E+00
          0.24769E+00  0.00000E+00 -0.11989E+00  0.30047E+00  0.00000E+00 -0.11133E+00  0.22785E+00  0.00000E+00 -0.13162E+00  0.25719E+00  0.00000E+00 -0.13016E+00  0.23859E+00  0.00000E+00 -0.13214E+00  0.22470E+00  0.00000E+00 -0.13792E+00
          0.23360E+00  0.00000E+00 -0.14322E+00  0.22833E+00  0.00000E+00 -0.14455E+00  0.21799E+00  0.00000E+00 -0.14592E+00  0.22585E+00  0.00000E+00 -0.14998E+00  0.22301E+00  0.00000E+00 -0.15789E+00  0.22269E+00  0.00000E+00 -0.15949E+00
          0.54413E+00  0.00000E+00 -0.12458E-02  0.56174E+00  0.00000E+00 -0.78308E-02  0.54901E+00  0.00000E+00 -0.53270E-02  0.52027E+00  0.00000E+00 -0.19558E-01  0.51573E+00  0.00000E+00 -0.22387E-01  0.50364E+00  0.00000E+00 -0.19150E-01
          0.50343E+00  0.00000E+00 -0.30100E-01  0.49718E+00  0.00000E+00 -0.33213E-01  0.48574E+00  0.00000E+00 -0.39833E-01  0.47344E+00  0.00000E+00 -0.43516E-01  0.46447E+00  0.00000E+00 -0.45893E-01  0.44565E+00  0.00000E+00 -0.59270E-01
          0.43156E+00  0.00000E+00 -0.67639E-01  0.39639E+00  0.00000E+00 -0.65086E-01  0.38208E+00  0.00000E+00 -0.85547E-01  0.33610E+00  0.00000E+00 -0.97705E-01  0.36716E+00  0.00000E+00 -0.89179E-01  0.32922E+00  0.00000E+00 -0.89412E-01
          0.25733E+00  0.00000E+00 -0.10460E+00  0.32345E+00  0.00000E+00 -0.99429E-01  0.24312E+00  0.00000E+00 -0.12139E+00  0.27885E+00  0.00000E+00 -0.11882E+00  0.25871E+00  0.00000E+00 -0.12155E+00  0.24223E+00  0.00000E+00 -0.12771E+00
          0.25318E+00  0.00000E+00 -0.13310E+00  0.24807E+00  0.00000E+00 -0.13440E+00  0.23580E+00  0.00000E+00 -0.13587E+00  0.24542E+00  0.00000E+00 -0.13999E+00  0.24252E+00  0.00000E+00 -0.14834E+00  0.24206E+00  0.00000E+00 -0.15004E+00
          0.58146E+00  0.00000E+00 -0.97464E-03  0.59576E+00  0.00000E+00 -0.61258E-02  0.58123E+00  0.00000E+00 -0.72381E-02  0.55184E+00  0.00000E+00 -0.20421E-01  0.55018E+00  0.00000E+00 -0.23876E-01  0.53502E+00  0.00000E+00 -0.21325E-01
          0.53529E+00  0.00000E+00 -0.29318E-01  0.52902E+00  0.00000E+00 -0.34606E-01  0.51885E+00  0.00000E+00 -0.39078E-01  0.50542E+00  0.00000E+00 -0.44799E-01  0.49331E+00  0.00000E+00 -0.47540E-01  0.47683E+00  0.00000E+00 -0.52506E-01
          0.46294E+00  0.00000E+00 -0.57855E-01  0.43265E+00  0.00000E+00 -0.70586E-01  0.41441E+00  0.00000E+00 -0.61751E-01  0.37804E+00  0.00000E+00 -0.94439E-01  0.35529E+00  0.00000E+00 -0.91402E-01  0.34003E+00  0.00000E+00 -0.84078E-01
          0.26643E+00  0.00000E+00 -0.98519E-01  0.34557E+00  0.00000E+00 -0.97971E-01  0.26372E+00  0.00000E+00 -0.11535E+00  0.30256E+00  0.00000E+00 -0.11229E+00  0.28413E+00  0.00000E+00 -0.11682E+00  0.26459E+00  0.00000E+00 -0.12285E+00
          0.27590E+00  0.00000E+00 -0.12844E+00  0.27053E+00  0.00000E+00 -0.13004E+00  0.25640E+00  0.00000E+00 -0.13190E+00  0.26656E+00  0.00000E+00 -0.13587E+00  0.26334E+00  0.00000E+00 -0.14483E+00  0.26269E+00  0.00000E+00 -0.14672E+00
          0.61805E+00  0.00000E+00 -0.57647E-03  0.63058E+00  0.00000E+00 -0.55416E-02  0.61816E+00  0.00000E+00 -0.62995E-02  0.58837E+00  0.00000E+00 -0.19921E-01  0.59141E+00  0.00000E+00 -0.25989E-01  0.57012E+00  0.00000E+00 -0.24366E-01
          0.56822E+00  0.00000E+00 -0.30814E-01  0.56116E+00  0.00000E+00 -0.38371E-01  0.55297E+00  0.00000E+00 -0.40981E-01  0.53898E+00  0.00000E+00 -0.45720E-01  0.52782E+00  0.00000E+00 -0.50300E-01  0.51112E+00  0.00000E+00 -0.56272E-01
          0.49417E+00  0.00000E+00 -0.56618E-01  0.47240E+00  0.00000E+00 -0.72754E-01  0.44221E+00  0.00000E+00 -0.64826E-01  0.42469E+00  0.00000E+00 -0.64300E-01  0.37224E+00  0.00000E+00 -0.99923E-01  0.35428E+00  0.00000E+00 -0.84215E-01
          0.28125E+00  0.00000E+00 -0.98264E-01  0.36483E+00  0.00000E+00 -0.10715E+00  0.28416E+00  0.00000E+00 -0.12278E+00  0.32995E+00  0.00000E+00 -0.11722E+00  0.31264E+00  0.00000E+00 -0.12305E+00  0.28974E+00  0.00000E+00 -0.12979E+00
          0.30056E+00  0.00000E+00 -0.13463E+00  0.29411E+00  0.00000E+00 -0.13516E+00  0.27841E+00  0.00000E+00 -0.13812E+00  0.28816E+00  0.00000E+00 -0.14206E+00  0.28425E+00  0.00000E+00 -0.15027E+00  0.28345E+00  0.00000E+00 -0.15198E+00
          0.65078E+00  0.00000E+00 -0.20061E-03  0.65364E+00  0.00000E+00 -0.19173E-02  0.66759E+00  0.00000E+00 -0.64273E-02  0.62570E+00  0.00000E+00 -0.10352E-01  0.64718E+00  0.00000E+00 -0.32527E-01  0.61327E+00  0.00000E+00 -0.22865E-01