<?xml version="1.0"?>
<VTKFile type="UnstructuredGrid" version="0.1" byte_order="LittleEndian" compressor="vtkZLibDataCompressor">
<UnstructuredGrid>
  <Piece NumberOfPoints="1800"        NumberOfCells="1"      >
    <Points>
      <DataArray type="Float32" NumberOfComponents="3" format="ascii" >
        0.60442E-02  0.00000E+00  0.40637E-02  0.55543E-02  0.00000E+00  0.13319E-01  0.54938E-02  0.00000E+00  0.22213E-01  0.55109E-02  0.00000E+00  0.31223E-01  0.55042E-02  0.00000E+00  0.40202E-01  0.54999E-02  0.00000E+00  0.49191E-01
        0.54879E-02  0.00000E+00  0.58191E-01  0.54738E-02  0.00000E+00  0.67211E-01  0.54574E-02  0.00000E+00  0.76255E-01  0.54394E-02  0.00000E+00  0.85326E-01  0.54205E-02  0.00000E+00  0.94427E-01  0.54008E-02  0.00000E+00  0.10356E+00
        0.53808E-02  0.00000E+00  0.11273E+00  0.53605E-02  0.00000E+00  0.12193E+00  0.53401E-02  0.00000E+00  0.13116E+00  0.53198E-02  0.00000E+00  0.14043E+00  0.52997E-02  0.00000E+00  0.14974E+00  0.52800E-02  0.00000E+00  0.15908E+00
        0.52606E-02  0.00000E+00  0.16846E+00  0.52419E-02  0.00000E+00  0.17787E+00  0.52238E-02  0.00000E+00  0.18731E+00  0.52066E-02  0.00000E+00  0.19679E+00  0.51908E-02  0.00000E+00  0.20630E+00  0.51757E-02  0.00000E+00  0.21583E+00
        0.51641E-02  0.00000E+00  0.22540E+00  0.51505E-02  0.00000E+00  0.23498E+00  0.51477E-02  0.00000E+00  0.24459E+00  0.51302E-02  0.00000E+00  0.25419E+00  0.51480E-02  0.00000E+00  0.26390E+00  0.50818E-02  0.00000E+00  0.27331E+00
        0.17294E-01  0.00000E+00  0.46038E-02  0.16692E-01  0.00000E+00  0.13769E-01  0.16595E-01  0.00000E+00  0.22543E-01  0.16616E-01  0.00000E+00  0.31457E-01  0.16582E-01  0.00000E+00  0.40388E-01  0.16561E-01  0.00000E+00  0.49336E-01
        0.16524E-01  0.00000E+00  0.58311E-01  0.16484E-01  0.00000E+00  0.67313E-01  0.16438E-01  0.00000E+00  0.76341E-01  0.16389E-01  0.00000E+00  0.85399E-01  0.16338E-01  0.00000E+00  0.94487E-01  0.16284E-01  0.00000E+00  0.10361E+00
        0.16230E-01  0.00000E+00  0.11276E+00  0.16174E-01  0.00000E+00  0.12195E+00  0.16118E-01  0.00000E+00  0.13117E+00  0.16062E-01  0.00000E+00  0.14042E+00  0.16006E-01  0.00000E+00  0.14972E+00  0.15951E-01  0.00000E+00  0.15904E+00
        0.15897E-01  0.00000E+00  0.16840E+00  0.15844E-01  0.00000E+00  0.17780E+00  0.15793E-01  0.00000E+00  0.18723E+00  0.15744E-01  0.00000E+00  0.19669E+00  0.15697E-01  0.00000E+00  0.20619E+00  0.15654E-01  0.00000E+00  0.21571E+00
        0.15615E-01  0.00000E+00  0.22526E+00  0.15577E-01  0.00000E+00  0.23483E+00  0.15551E-01  0.00000E+00  0.24445E+00  0.15512E-01  0.00000E+00  0.25402E+00  0.15500E-01  0.00000E+00  0.26373E+00  0.15451E-01  0.00000E+00  0.27318E+00
        0.28264E-01  0.00000E+00  0.46654E-02  0.27830E-01  0.00000E+00  0.13920E-01  0.27741E-01  0.00000E+00  0.22748E-01  0.27712E-01  0.00000E+00  0.31692E-01  0.27665E-01  0.00000E+00  0.40643E-01  0.27613E-01  0.00000E+00  0.49598E-01
        0.27549E-01  0.00000E+00  0.58578E-01  0.27477E-01  0.00000E+00  0.67580E-01  0.27399E-01  0.00000E+00  0.76607E-01  0.27315E-01  0.00000E+00  0.85662E-01  0.27227E-01  0.00000E+00  0.94745E-01  0.27137E-01  0.00000E+00  0.10386E+00
        0.27044E-01  0.00000E+00  0.11300E+00  0.26949E-01  0.00000E+00  0.12218E+00  0.26854E-01  0.00000E+00  0.13139E+00  0.26759E-01  0.00000E+00  0.14064E+00  0.26664E-01  0.00000E+00  0.14992E+00  0.26570E-01  0.00000E+00  0.15923E+00
        0.26478E-01  0.00000E+00  0.16858E+00  0.26388E-01  0.00000E+00  0.17797E+00  0.26300E-01  0.00000E+00  0.18738E+00  0.26217E-01  0.00000E+00  0.19683E+00  0.26137E-01  0.00000E+00  0.20632E+00  0.26064E-01  0.00000E+00  0.21583E+00
        0.25996E-01  0.00000E+00  0.22537E+00  0.25938E-01  0.00000E+00  0.23493E+00  0.25888E-01  0.00000E+00  0.24454E+00  0.25846E-01  0.00000E+00  0.25411E+00  0.25824E-01  0.00000E+00  0.26383E+00  0.25816E-01  0.00000E+00  0.27322E+00
        0.39295E-01  0.00000E+00  0.46220E-02  0.39040E-01  0.00000E+00  0.13914E-01  0.38957E-01  0.00000E+00  0.22779E-01  0.38922E-01  0.00000E+00  0.31756E-01  0.38864E-01  0.00000E+00  0.40726E-01  0.38794E-01  0.00000E+00  0.49697E-01
        0.38709E-01  0.00000E+00  0.58688E-01  0.38610E-01  0.00000E+00  0.67696E-01  0.38502E-01  0.00000E+00  0.76726E-01  0.38386E-01  0.00000E+00  0.85782E-01  0.38264E-01  0.00000E+00  0.94864E-01  0.38137E-01  0.00000E+00  0.10397E+00
        0.38008E-01  0.00000E+00  0.11312E+00  0.37875E-01  0.00000E+00  0.12229E+00  0.37742E-01  0.00000E+00  0.13149E+00  0.37608E-01  0.00000E+00  0.14073E+00  0.37474E-01  0.00000E+00  0.15000E+00  0.37341E-01  0.00000E+00  0.15930E+00
        0.37210E-01  0.00000E+00  0.16864E+00  0.37082E-01  0.00000E+00  0.17801E+00  0.36958E-01  0.00000E+00  0.18742E+00  0.36839E-01  0.00000E+00  0.19686E+00  0.36726E-01  0.00000E+00  0.20633E+00  0.36621E-01  0.00000E+00  0.21582E+00
        0.36524E-01  0.00000E+00  0.22536E+00  0.36439E-01  0.00000E+00  0.23490E+00  0.36365E-01  0.00000E+00  0.24450E+00  0.36305E-01  0.00000E+00  0.25405E+00  0.36262E-01  0.00000E+00  0.26373E+00  0.36226E-01  0.00000E+00  0.27315E+00
        0.50319E-01  0.00000E+00  0.46266E-02  0.50180E-01  0.00000E+00  0.13912E-01  0.50116E-01  0.00000E+00  0.22787E-01  0.50074E-01  0.00000E+00  0.31768E-01  0.50008E-01  0.00000E+00  0.40743E-01  0.49922E-01  0.00000E+00  0.49719E-01
        0.49816E-01  0.00000E+00  0.58713E-01  0.49692E-01  0.00000E+00  0.67725E-01  0.49556E-01  0.00000E+00  0.76757E-01  0.49409E-01  0.00000E+00  0.85813E-01  0.49253E-01  0.00000E+00  0.94893E-01  0.49091E-01  0.00000E+00  0.10400E+00
        0.48925E-01  0.00000E+00  0.11314E+00  0.48755E-01  0.00000E+00  0.12231E+00  0.48582E-01  0.00000E+00  0.13151E+00  0.48409E-01  0.00000E+00  0.14074E+00  0.48235E-01  0.00000E+00  0.15000E+00  0.48063E-01  0.00000E+00  0.15930E+00
        0.47892E-01  0.00000E+00  0.16863E+00  0.47725E-01  0.00000E+00  0.17799E+00  0.47562E-01  0.00000E+00  0.18739E+00  0.47405E-01  0.00000E+00  0.19682E+00  0.47255E-01  0.00000E+00  0.20628E+00  0.47115E-01  0.00000E+00  0.21577E+00
        0.46986E-01  0.00000E+00  0.22530E+00  0.46870E-01  0.00000E+00  0.23484E+00  0.46772E-01  0.00000E+00  0.24443E+00  0.46691E-01  0.00000E+00  0.25398E+00  0.46640E-01  0.00000E+00  0.26368E+00  0.46614E-01  0.00000E+00  0.27306E+00
        0.61360E-01  0.00000E+00  0.46178E-02  0.61318E-01  0.00000E+00  0.13902E-01  0.61276E-01  0.00000E+00  0.22779E-01  0.61230E-01  0.00000E+00  0.31760E-01  0.61157E-01  0.00000E+00  0.40732E-01  0.61057E-01  0.00000E+00  0.49705E-01
        0.60932E-01  0.00000E+00  0.58698E-01  0.60785E-01  0.00000E+00  0.67707E-01  0.60622E-01  0.00000E+00  0.76736E-01  0.60446E-01  0.00000E+00  0.85788E-01  0.60258E-01  0.00000E+00  0.94866E-01  0.60063E-01  0.00000E+00  0.10397E+00
        0.59861E-01  0.00000E+00  0.11310E+00  0.59655E-01  0.00000E+00  0.12227E+00  0.59446E-01  0.00000E+00  0.13146E+00  0.59235E-01  0.00000E+00  0.14069E+00  0.59023E-01  0.00000E+00  0.14995E+00  0.58812E-01  0.00000E+00  0.15924E+00
        0.58604E-01  0.00000E+00  0.16856E+00  0.58399E-01  0.00000E+00  0.17792E+00  0.58200E-01  0.00000E+00  0.18731E+00  0.58007E-01  0.00000E+00  0.19673E+00  0.57824E-01  0.00000E+00  0.20619E+00  0.57652E-01  0.00000E+00  0.21567E+00
        0.57494E-01  0.00000E+00  0.22519E+00  0.57354E-01  0.00000E+00  0.23472E+00  0.57234E-01  0.00000E+00  0.24430E+00  0.57138E-01  0.00000E+00  0.25384E+00  0.57069E-01  0.00000E+00  0.26352E+00  0.57028E-01  0.00000E+00  0.27291E+00
        0.72421E-01  0.00000E+00  0.46095E-02  0.72455E-01  0.00000E+00  0.13886E-01  0.72440E-01  0.00000E+00  0.22759E-01  0.72393E-01  0.00000E+00  0.31732E-01  0.72313E-01  0.00000E+00  0.40697E-01  0.72199E-01  0.00000E+00  0.49663E-01
        0.72054E-01  0.00000E+00  0.58648E-01  0.71884E-01  0.00000E+00  0.67651E-01  0.71694E-01  0.00000E+00  0.76673E-01  0.71488E-01  0.00000E+00  0.85719E-01  0.71269E-01  0.00000E+00  0.94790E-01  0.71041E-01  0.00000E+00  0.10389E+00
        0.70804E-01  0.00000E+00  0.11302E+00  0.70562E-01  0.00000E+00  0.12217E+00  0.70315E-01  0.00000E+00  0.13136E+00  0.70066E-01  0.00000E+00  0.14058E+00  0.69817E-01  0.00000E+00  0.14983E+00  0.69567E-01  0.00000E+00  0.15912E+00
        0.69320E-01  0.00000E+00  0.16843E+00  0.69077E-01  0.00000E+00  0.17779E+00  0.68840E-01  0.00000E+00  0.18717E+00  0.68610E-01  0.00000E+00  0.19659E+00  0.68391E-01  0.00000E+00  0.20604E+00  0.68185E-01  0.00000E+00  0.21551E+00
        0.67995E-01  0.00000E+00  0.22503E+00  0.67824E-01  0.00000E+00  0.23455E+00  0.67678E-01  0.00000E+00  0.24413E+00  0.67560E-01  0.00000E+00  0.25366E+00  0.67480E-01  0.00000E+00  0.26335E+00  0.67437E-01  0.00000E+00  0.27272E+00
        0.83504E-01  0.00000E+00  0.46006E-02  0.83601E-01  0.00000E+00  0.13866E-01  0.83613E-01  0.00000E+00  0.22730E-01  0.83567E-01  0.00000E+00  0.31692E-01  0.83481E-01  0.00000E+00  0.40646E-01  0.83351E-01  0.00000E+00  0.49601E-01
        0.83187E-01  0.00000E+00  0.58575E-01  0.82994E-01  0.00000E+00  0.67567E-01  0.82777E-01  0.00000E+00  0.76579E-01  0.82541E-01  0.00000E+00  0.85616E-01  0.82291E-01  0.00000E+00  0.94678E-01  0.82028E-01  0.00000E+00  0.10377E+00
        0.81756E-01  0.00000E+00  0.11289E+00  0.81478E-01  0.00000E+00  0.12204E+00  0.81194E-01  0.00000E+00  0.13122E+00  0.80907E-01  0.00000E+00  0.14043E+00  0.80619E-01  0.00000E+00  0.14967E+00  0.80331E-01  0.00000E+00  0.15895E+00
        0.80045E-01  0.00000E+00  0.16826E+00  0.79764E-01  0.00000E+00  0.17761E+00  0.79489E-01  0.00000E+00  0.18699E+00  0.79223E-01  0.00000E+00  0.19640E+00  0.78968E-01  0.00000E+00  0.20584E+00  0.78729E-01  0.00000E+00  0.21531E+00
        0.78509E-01  0.00000E+00  0.22482E+00  0.78312E-01  0.00000E+00  0.23434E+00  0.78143E-01  0.00000E+00  0.24391E+00  0.78008E-01  0.00000E+00  0.25344E+00  0.77913E-01  0.00000E+00  0.26311E+00  0.77859E-01  0.00000E+00  0.27248E+00
[...]
<PointData>
      <DataArray type="Float32" Name="Velocity vectors"  NumberOfComponents="3"  format="ascii" >
          0.93048E-02  0.00000E+00 -0.79230E-02  0.46819E-02  0.00000E+00 -0.15988E-01  0.32062E-02  0.00000E+00 -0.24404E-01  0.38779E-02  0.00000E+00 -0.33137E-01  0.36574E-02  0.00000E+00 -0.41566E-01  0.36542E-02  0.00000E+00 -0.50027E-01
          0.35649E-02  0.00000E+00 -0.58359E-01  0.34585E-02  0.00000E+00 -0.66570E-01  0.33293E-02  0.00000E+00 -0.74591E-01  0.31911E-02  0.00000E+00 -0.82422E-01  0.30423E-02  0.00000E+00 -0.90024E-01  0.28937E-02  0.00000E+00 -0.97399E-01
          0.27444E-02  0.00000E+00 -0.10453E+00  0.25990E-02  0.00000E+00 -0.11142E+00  0.24583E-02  0.00000E+00 -0.11807E+00  0.23244E-02  0.00000E+00 -0.12447E+00  0.21985E-02  0.00000E+00 -0.13063E+00  0.20824E-02  0.00000E+00 -0.13656E+00
          0.19769E-02  0.00000E+00 -0.14226E+00  0.18850E-02  0.00000E+00 -0.14773E+00  0.18039E-02  0.00000E+00 -0.15300E+00  0.17373E-02  0.00000E+00 -0.15806E+00  0.16798E-02  0.00000E+00 -0.16294E+00  0.16458E-02  0.00000E+00 -0.16764E+00
          0.16171E-02  0.00000E+00 -0.17221E+00  0.16180E-02  0.00000E+00 -0.17662E+00  0.15960E-02  0.00000E+00 -0.18097E+00  0.15772E-02  0.00000E+00 -0.18520E+00  0.16575E-02  0.00000E+00 -0.18870E+00  0.27395E-03  0.00000E+00 -0.19452E+00
          0.18987E-01  0.00000E+00 -0.43038E-02  0.12876E-01  0.00000E+00 -0.12074E-01  0.11653E-01  0.00000E+00 -0.21358E-01  0.11943E-01  0.00000E+00 -0.31132E-01  0.11516E-01  0.00000E+00 -0.40003E-01  0.11355E-01  0.00000E+00 -0.48984E-01
          0.11032E-01  0.00000E+00 -0.57637E-01  0.10693E-01  0.00000E+00 -0.66123E-01  0.10309E-01  0.00000E+00 -0.74343E-01  0.99085E-02  0.00000E+00 -0.82365E-01  0.94914E-02  0.00000E+00 -0.90129E-01  0.90730E-02  0.00000E+00 -0.97670E-01
          0.86558E-02  0.00000E+00 -0.10496E+00  0.82472E-02  0.00000E+00 -0.11202E+00  0.78506E-02  0.00000E+00 -0.11884E+00  0.74695E-02  0.00000E+00 -0.12542E+00  0.71067E-02  0.00000E+00 -0.13176E+00  0.67664E-02  0.00000E+00 -0.13788E+00
          0.64514E-02  0.00000E+00 -0.14377E+00  0.61657E-02  0.00000E+00 -0.14943E+00  0.59097E-02  0.00000E+00 -0.15490E+00  0.56920E-02  0.00000E+00 -0.16015E+00  0.55085E-02  0.00000E+00 -0.16523E+00  0.53758E-02  0.00000E+00 -0.17011E+00
          0.52754E-02  0.00000E+00 -0.17487E+00  0.52334E-02  0.00000E+00 -0.17944E+00  0.51945E-02  0.00000E+00 -0.18388E+00  0.51473E-02  0.00000E+00 -0.18836E+00  0.50592E-02  0.00000E+00 -0.19199E+00  0.45839E-02  0.00000E+00 -0.19839E+00
          0.28108E-01  0.00000E+00 -0.42123E-02  0.22839E-01  0.00000E+00 -0.11196E-01  0.21630E-01  0.00000E+00 -0.20294E-01  0.21488E-01  0.00000E+00 -0.29725E-01  0.20937E-01  0.00000E+00 -0.38493E-01  0.20428E-01  0.00000E+00 -0.47419E-01
          0.19832E-01  0.00000E+00 -0.56035E-01  0.19178E-01  0.00000E+00 -0.64525E-01  0.18486E-01  0.00000E+00 -0.72752E-01  0.17767E-01  0.00000E+00 -0.80806E-01  0.17039E-01  0.00000E+00 -0.88602E-01  0.16309E-01  0.00000E+00 -0.96191E-01
          0.15589E-01  0.00000E+00 -0.10354E+00  0.14886E-01  0.00000E+00 -0.11066E+00  0.14204E-01  0.00000E+00 -0.11756E+00  0.13551E-01  0.00000E+00 -0.12422E+00  0.12932E-01  0.00000E+00 -0.13067E+00  0.12351E-01  0.00000E+00 -0.13689E+00
          0.11815E-01  0.00000E+00 -0.14290E+00  0.11327E-01  0.00000E+00 -0.14869E+00  0.10894E-01  0.00000E+00 -0.15429E+00  0.10519E-01  0.00000E+00 -0.15969E+00  0.10204E-01  0.00000E+00 -0.16491E+00  0.99571E-02  0.00000E+00 -0.16994E+00
          0.97616E-02  0.00000E+00 -0.17484E+00  0.96350E-02  0.00000E+00 -0.17955E+00  0.95130E-02  0.00000E+00 -0.18407E+00  0.94511E-02  0.00000E+00 -0.18871E+00  0.93319E-02  0.00000E+00 -0.19236E+00  0.94050E-02  0.00000E+00 -0.19904E+00
          0.36247E-01  0.00000E+00 -0.38961E-02  0.32199E-01  0.00000E+00 -0.10797E-01  0.31038E-01  0.00000E+00 -0.19729E-01  0.30702E-01  0.00000E+00 -0.28975E-01  0.30042E-01  0.00000E+00 -0.37624E-01  0.29326E-01  0.00000E+00 -0.46439E-01
          0.28491E-01  0.00000E+00 -0.54981E-01  0.27572E-01  0.00000E+00 -0.63399E-01  0.26602E-01  0.00000E+00 -0.71570E-01  0.25597E-01  0.00000E+00 -0.79580E-01  0.24580E-01  0.00000E+00 -0.87340E-01  0.23564E-01  0.00000E+00 -0.94909E-01
          0.22562E-01  0.00000E+00 -0.10225E+00  0.21583E-01  0.00000E+00 -0.10937E+00  0.20635E-01  0.00000E+00 -0.11628E+00  0.19725E-01  0.00000E+00 -0.12297E+00  0.18862E-01  0.00000E+00 -0.12945E+00  0.18051E-01  0.00000E+00 -0.13572E+00
          0.17300E-01  0.00000E+00 -0.14178E+00  0.16614E-01  0.00000E+00 -0.14764E+00  0.16002E-01  0.00000E+00 -0.15331E+00  0.15471E-01  0.00000E+00 -0.15880E+00  0.15023E-01  0.00000E+00 -0.16411E+00  0.14666E-01  0.00000E+00 -0.16924E+00
          0.14388E-01  0.00000E+00 -0.17423E+00  0.14205E-01  0.00000E+00 -0.17907E+00  0.14074E-01  0.00000E+00 -0.18369E+00  0.14037E-01  0.00000E+00 -0.18853E+00  0.14010E-01  0.00000E+00 -0.19228E+00  0.14088E-01  0.00000E+00 -0.19904E+00
          0.44512E-01  0.00000E+00 -0.39490E-02  0.41619E-01  0.00000E+00 -0.10718E-01  0.40538E-01  0.00000E+00 -0.19541E-01  0.40053E-01  0.00000E+00 -0.28682E-01  0.39299E-01  0.00000E+00 -0.37259E-01  0.38389E-01  0.00000E+00 -0.45997E-01
          0.37316E-01  0.00000E+00 -0.54463E-01  0.36136E-01  0.00000E+00 -0.62811E-01  0.34886E-01  0.00000E+00 -0.70919E-01  0.33598E-01  0.00000E+00 -0.78867E-01  0.32295E-01  0.00000E+00 -0.86575E-01  0.30996E-01  0.00000E+00 -0.94099E-01
          0.29715E-01  0.00000E+00 -0.10140E+00  0.28464E-01  0.00000E+00 -0.10850E+00  0.27254E-01  0.00000E+00 -0.11539E+00  0.26093E-01  0.00000E+00 -0.12207E+00  0.24991E-01  0.00000E+00 -0.12855E+00  0.23956E-01  0.00000E+00 -0.13483E+00
          0.22998E-01  0.00000E+00 -0.14091E+00  0.22124E-01  0.00000E+00 -0.14681E+00  0.21343E-01  0.00000E+00 -0.15253E+00  0.20660E-01  0.00000E+00 -0.15806E+00  0.20080E-01  0.00000E+00 -0.16343E+00  0.19606E-01  0.00000E+00 -0.16863E+00
          0.19234E-01  0.00000E+00 -0.17368E+00  0.18956E-01  0.00000E+00 -0.17861E+00  0.18777E-01  0.00000E+00 -0.18328E+00  0.18666E-01  0.00000E+00 -0.18820E+00  0.18674E-01  0.00000E+00 -0.19194E+00  0.18688E-01  0.00000E+00 -0.19888E+00
          0.52718E-01  0.00000E+00 -0.39486E-02  0.50758E-01  0.00000E+00 -0.10709E-01  0.49796E-01  0.00000E+00 -0.19485E-01  0.49192E-01  0.00000E+00 -0.28583E-01  0.48333E-01  0.00000E+00 -0.37132E-01  0.47242E-01  0.00000E+00 -0.45819E-01
          0.45948E-01  0.00000E+00 -0.54244E-01  0.44520E-01  0.00000E+00 -0.62553E-01  0.43010E-01  0.00000E+00 -0.70620E-01  0.41454E-01  0.00000E+00 -0.78532E-01  0.39883E-01  0.00000E+00 -0.86205E-01  0.38317E-01  0.00000E+00 -0.93696E-01
          0.36774E-01  0.00000E+00 -0.10097E+00  0.35269E-01  0.00000E+00 -0.10804E+00  0.33812E-01  0.00000E+00 -0.11491E+00  0.32415E-01  0.00000E+00 -0.12158E+00  0.31088E-01  0.00000E+00 -0.12805E+00  0.29841E-01  0.00000E+00 -0.13433E+00
          0.28684E-01  0.00000E+00 -0.14042E+00  0.27626E-01  0.00000E+00 -0.14633E+00  0.26676E-01  0.00000E+00 -0.15206E+00  0.25841E-01  0.00000E+00 -0.15762E+00  0.25130E-01  0.00000E+00 -0.16303E+00  0.24540E-01  0.00000E+00 -0.16826E+00
          0.24083E-01  0.00000E+00 -0.17336E+00  0.23742E-01  0.00000E+00 -0.17835E+00  0.23537E-01  0.00000E+00 -0.18310E+00  0.23432E-01  0.00000E+00 -0.18811E+00  0.23466E-01  0.00000E+00 -0.19194E+00  0.23461E-01  0.00000E+00 -0.19899E+00
          0.61128E-01  0.00000E+00 -0.39899E-02  0.59948E-01  0.00000E+00 -0.10746E-01  0.59152E-01  0.00000E+00 -0.19506E-01  0.58446E-01  0.00000E+00 -0.28602E-01  0.57476E-01  0.00000E+00 -0.37158E-01  0.56200E-01  0.00000E+00 -0.45837E-01
          0.54680E-01  0.00000E+00 -0.54256E-01  0.53003E-01  0.00000E+00 -0.62549E-01  0.51228E-01  0.00000E+00 -0.70600E-01  0.49401E-01  0.00000E+00 -0.78493E-01  0.47558E-01  0.00000E+00 -0.86147E-01  0.45724E-01  0.00000E+00 -0.93617E-01
          0.43918E-01  0.00000E+00 -0.10087E+00  0.42158E-01  0.00000E+00 -0.10793E+00  0.40455E-01  0.00000E+00 -0.11478E+00  0.38823E-01  0.00000E+00 -0.12143E+00  0.37275E-01  0.00000E+00 -0.12790E+00  0.35820E-01  0.00000E+00 -0.13417E+00
          0.34470E-01  0.00000E+00 -0.14026E+00  0.33236E-01  0.00000E+00 -0.14618E+00  0.32129E-01  0.00000E+00 -0.15192E+00  0.31155E-01  0.00000E+00 -0.15750E+00  0.30324E-01  0.00000E+00 -0.16294E+00  0.29634E-01  0.00000E+00 -0.16820E+00
          0.29097E-01  0.00000E+00 -0.17335E+00  0.28691E-01  0.00000E+00 -0.17838E+00  0.28443E-01  0.00000E+00 -0.18320E+00  0.28301E-01  0.00000E+00 -0.18826E+00  0.28328E-01  0.00000E+00 -0.19213E+00  0.28296E-01  0.00000E+00 -0.19930E+00
          0.69659E-01  0.00000E+00 -0.40168E-02  0.69115E-01  0.00000E+00 -0.10794E-01  0.68509E-01  0.00000E+00 -0.19568E-01  0.67728E-01  0.00000E+00 -0.28684E-01  0.66639E-01  0.00000E+00 -0.37274E-01  0.65172E-01  0.00000E+00 -0.45968E-01
          0.63427E-01  0.00000E+00 -0.54403E-01  0.61500E-01  0.00000E+00 -0.62702E-01  0.59462E-01  0.00000E+00 -0.70757E-01  0.57369E-01  0.00000E+00 -0.78648E-01  0.55260E-01  0.00000E+00 -0.86298E-01  0.53164E-01  0.00000E+00 -0.93763E-01
          0.51103E-01  0.00000E+00 -0.10101E+00  0.49095E-01  0.00000E+00 -0.10806E+00  0.47156E-01  0.00000E+00 -0.11490E+00  0.45298E-01  0.00000E+00 -0.12156E+00  0.43535E-01  0.00000E+00 -0.12801E+00  0.41879E-01  0.00000E+00 -0.13429E+00
          0.40341E-01  0.00000E+00 -0.14038E+00  0.38933E-01  0.00000E+00 -0.14630E+00  0.37667E-01  0.00000E+00 -0.15206E+00  0.36550E-01  0.00000E+00 -0.15764E+00  0.35592E-01  0.00000E+00 -0.16310E+00  0.34795E-01  0.00000E+00 -0.16838E+00
          0.34170E-01  0.00000E+00 -0.17358E+00  0.33699E-01  0.00000E+00 -0.17863E+00  0.33411E-01  0.00000E+00 -0.18351E+00  0.33255E-01  0.00000E+00 -0.18862E+00  0.33290E-01  0.00000E+00 -0.19257E+00  0.33247E-01  0.00000E+00 -0.19984E+00
          0.78382E-01  0.00000E+00 -0.40473E-02  0.78409E-01  0.00000E+00 -0.10851E-01  0.78012E-01  0.00000E+00 -0.19663E-01  0.77168E-01  0.00000E+00 -0.28820E-01  0.75954E-01  0.00000E+00 -0.37462E-01  0.74290E-01  0.00000E+00 -0.46191E-01
          0.72308E-01  0.00000E+00 -0.54661E-01  0.70122E-01  0.00000E+00 -0.62982E-01  0.67813E-01  0.00000E+00 -0.71055E-01  0.65444E-01  0.00000E+00 -0.78956E-01  0.63061E-01  0.00000E+00 -0.86614E-01  0.60696E-01  0.00000E+00 -0.94081E-01
          0.58373E-01  0.00000E+00 -0.10133E+00  0.56112E-01  0.00000E+00 -0.10838E+00  0.53930E-01  0.00000E+00 -0.11522E+00  0.51840E-01  0.00000E+00 -0.12187E+00  0.49858E-01  0.00000E+00 -0.12833E+00  0.47996E-01  0.00000E+00 -0.13460E+00
          0.46268E-01  0.00000E+00 -0.14070E+00  0.44686E-01  0.00000E+00 -0.14662E+00  0.43263E-01  0.00000E+00 -0.15239E+00  0.42009E-01  0.00000E+00 -0.15799E+00  0.40935E-01  0.00000E+00 -0.16347E+00  0.40040E-01  0.00000E+00 -0.16878E+00
          0.39340E-01  0.00000E+00 -0.17401E+00  0.38812E-01  0.00000E+00 -0.17910E+00  0.38488E-01  0.00000E+00 -0.18404E+00  0.38305E-01  0.00000E+00 -0.18919E+00  0.38333E-01  0.00000E+00 -0.19318E+00  0.38267E-01  0.00000E+00 -0.20056E+00
          0.87254E-01  0.00000E+00 -0.40667E-02  0.87807E-01  0.00000E+00 -0.10906E-01  0.87627E-01  0.00000E+00 -0.19773E-01  0.86737E-01  0.00000E+00 -0.28986E-01  0.85396E-01  0.00000E+00 -0.37695E-01  0.83527E-01  0.00000E+00 -0.46472E-01
          0.81300E-01  0.00000E+00 -0.54993E-01  0.78848E-01  0.00000E+00 -0.63347E-01  0.76261E-01  0.00000E+00 -0.71450E-01  0.73615E-01  0.00000E+00 -0.79372E-01  0.70957E-01  0.00000E+00 -0.87045E-01  0.68323E-01  0.00000E+00 -0.94524E-01
          0.65741E-01  0.00000E+00 -0.10178E+00  0.63230E-01  0.00000E+00 -0.10883E+00  0.60809E-01  0.00000E+00 -0.11568E+00  0.58493E-01  0.00000E+00 -0.12234E+00  0.56297E-01  0.00000E+00 -0.12880E+00  0.54235E-01  0.00000E+00 -0.13508E+00
          0.52322E-01  0.00000E+00 -0.14119E+00  0.50570E-01  0.00000E+00 -0.14712E+00  0.48992E-01  0.00000E+00 -0.15290E+00  0.47600E-01  0.00000E+00 -0.15852E+00  0.46404E-01  0.00000E+00 -0.16403E+00  0.45406E-01  0.00000E+00 -0.16935E+00
          0.44621E-01  0.00000E+00 -0.17463E+00  0.44027E-01  0.00000E+00 -0.17975E+00  0.43657E-01  0.00000E+00 -0.18474E+00  0.43446E-01  0.00000E+00 -0.18995E+00  0.43471E-01  0.00000E+00 -0.19400E+00  0.43381E-01  0.00000E+00 -0.20148E+00
          0.96308E-01  0.00000E+00 -0.40846E-02  0.97395E-01  0.00000E+00 -0.10964E-01  0.97441E-01  0.00000E+00 -0.19902E-01  0.96515E-01  0.00000E+00 -0.29187E-01  0.95042E-01  0.00000E+00 -0.37977E-01  0.92959E-01  0.00000E+00 -0.46815E-01
          0.90475E-01  0.00000E+00 -0.55398E-01  0.87743E-01  0.00000E+00 -0.63796E-01  0.84867E-01  0.00000E+00 -0.71937E-01  0.81932E-01  0.00000E+00 -0.79887E-01  0.78989E-01  0.00000E+00 -0.87583E-01  0.76078E-01  0.00000E+00 -0.95080E-01
          0.73228E-01  0.00000E+00 -0.10235E+00  0.70461E-01  0.00000E+00 -0.10942E+00  0.67794E-01  0.00000E+00 -0.11627E+00  0.65244E-01  0.00000E+00 -0.12294E+00  0.62828E-01  0.00000E+00 -0.12941E+00  0.60560E-01  0.00000E+00 -0.13570E+00
          0.58454E-01  0.00000E+00 -0.14181E+00  0.56527E-01  0.00000E+00 -0.14776E+00  0.54792E-01  0.00000E+00 -0.15356E+00  0.53260E-01  0.00000E+00 -0.15919E+00  0.51944E-01  0.00000E+00 -0.16474E+00  0.50847E-01  0.00000E+00 -0.17009E+00
          0.49982E-01  0.00000E+00 -0.17541E+00  0.49329E-01  0.00000E+00 -0.18057E+00  0.48919E-01  0.00000E+00 -0.18563E+00  0.48681E-01  0.00000E+00 -0.19088E+00  0.48697E-01  0.00000E+00 -0.19499E+00  0.48575E-01  0.00000E+00 -0.20258E+00
          0.10553E+00  0.00000E+00 -0.40943E-02  0.10718E+00  0.00000E+00 -0.11020E-01  0.10746E+00  0.00000E+00 -0.20043E-01  0.10650E+00  0.00000E+00 -0.29413E-01  0.10489E+00  0.00000E+00 -0.38296E-01  0.10259E+00  0.00000E+00 -0.47204E-01
          0.99830E-01  0.00000E+00 -0.55859E-01  0.96805E-01  0.00000E+00 -0.64308E-01  0.93629E-01  0.00000E+00 -0.72494E-01  0.90396E-01  0.00000E+00 -0.80478E-01  0.87162E-01  0.00000E+00 -0.88202E-01  0.83970E-01  0.00000E+00 -0.95721E-01
          0.80850E-01  0.00000E+00 -0.10301E+00  0.77825E-01  0.00000E+00 -0.11009E+00  0.74913E-01  0.00000E+00 -0.11696E+00  0.72131E-01  0.00000E+00 -0.12364E+00  0.69497E-01  0.00000E+00 -0.13013E+00  0.67025E-01  0.00000E+00 -0.13643E+00
          0.64732E-01  0.00000E+00 -0.14257E+00  0.62632E-01  0.00000E+00 -0.14853E+00  0.60740E-01  0.00000E+00 -0.15436E+00  0.59070E-01  0.00000E+00 -0.16002E+00  0.57633E-01  0.00000E+00 -0.16559E+00  0.56432E-01  0.00000E+00 -0.17098E+00
          0.55483E-01  0.00000E+00 -0.17635E+00  0.54760E-01  0.00000E+00 -0.18154E+00  0.54301E-01  0.00000E+00 -0.18667E+00  0.54025E-01  0.00000E+00 -0.19197E+00  0.54028E-01  0.00000E+00 -0.19615E+00  0.53870E-01  0.00000E+00 -0.20386E+00
          0.11493E+00  0.00000E+00 -0.41001E-02  0.11720E+00  0.00000E+00 -0.11075E-01  0.11773E+00  0.00000E+00 -0.20196E-01  0.11675E+00  0.00000E+00 -0.29665E-01  0.11500E+00  0.00000E+00 -0.38654E-01  0.11245E+00  0.00000E+00 -0.47642E-01
          0.10941E+00  0.00000E+00 -0.56377E-01  0.10608E+00  0.00000E+00 -0.64884E-01  0.10259E+00  0.00000E+00 -0.73121E-01  0.99042E-01  0.00000E+00 -0.81144E-01  0.95507E-01  0.00000E+00 -0.88900E-01  0.92025E-01  0.00000E+00 -0.96445E-01
          0.88628E-01  0.00000E+00 -0.10375E+00  0.85337E-01  0.00000E+00 -0.11086E+00  0.82174E-01  0.00000E+00 -0.11775E+00  0.79155E-01  0.00000E+00 -0.12444E+00  0.76296E-01  0.00000E+00 -0.13095E+00  0.73615E-01  0.00000E+00 -0.13727E+00
          0.71127E-01  0.00000E+00 -0.14343E+00  0.68849E-01  0.00000E+00 -0.14942E+00  0.66797E-01  0.00000E+00 -0.15527E+00  0.64983E-01  0.00000E+00 -0.16096E+00  0.63423E-01  0.00000E+00 -0.16658E+00  0.62117E-01  0.00000E+00 -0.17200E+00
          0.61083E-01  0.00000E+00 -0.17744E+00  0.60294E-01  0.00000E+00 -0.18267E+00  0.59789E-01  0.00000E+00 -0.18788E+00  0.59478E-01  0.00000E+00 -0.19323E+00  0.59465E-01  0.00000E+00 -0.19749E+00  0.59265E-01  0.00000E+00 -0.20533E+00
          0.12450E+00  0.00000E+00 -0.40986E-02  0.12748E+00  0.00000E+00 -0.11128E-01  0.12828E+00  0.00000E+00 -0.20357E-01  0.12728E+00  0.00000E+00 -0.29939E-01  0.12538E+00  0.00000E+00 -0.39046E-01  0.12258E+00  0.00000E+00 -0.48122E-01
          0.11923E+00  0.00000E+00 -0.56946E-01  0.11557E+00  0.00000E+00 -0.65515E-01  0.11175E+00  0.00000E+00 -0.73808E-01  0.10788E+00  0.00000E+00 -0.81873E-01  0.10404E+00  0.00000E+00 -0.89664E-01  0.10026E+00  0.00000E+00 -0.97238E-01
          0.96576E-01  0.00000E+00 -0.10457E+00  0.93017E-01  0.00000E+00 -0.11170E+00  0.89599E-01  0.00000E+00 -0.11861E+00  0.86340E-01  0.00000E+00 -0.12533E+00  0.83257E-01  0.00000E+00 -0.13185E+00  0.80366E-01  0.00000E+00 -0.13820E+00
          0.77684E-01  0.00000E+00 -0.14439E+00  0.75229E-01  0.00000E+00 -0.15041E+00  0.73016E-01  0.00000E+00 -0.15630E+00  0.71060E-01  0.00000E+00 -0.16202E+00  0.69374E-01  0.00000E+00 -0.16769E+00  0.67962E-01  0.00000E+00 -0.17315E+00
          0.66839E-01  0.00000E+00 -0.17866E+00  0.65978E-01  0.00000E+00 -0.18394E+00  0.65417E-01  0.00000E+00 -0.18924E+00  0.65061E-01  0.00000E+00 -0.19466E+00  0.65026E-01  0.00000E+00 -0.19899E+00  0.64776E-01  0.00000E+00 -0.20698E+00
          0.13427E+00  0.00000E+00 -0.40904E-02  0.13806E+00  0.00000E+00 -0.11178E-01  0.13916E+00  0.00000E+00 -0.20526E-01  0.13813E+00  0.00000E+00 -0.30237E-01  0.13607E+00  0.00000E+00 -0.39474E-01  0.13300E+00  0.00000E+00 -0.48646E-01
          0.12932E+00  0.00000E+00 -0.57566E-01  0.12531E+00  0.00000E+00 -0.66201E-01  0.12115E+00  0.00000E+00 -0.74554E-01  0.11694E+00  0.00000E+00 -0.82663E-01  0.11277E+00  0.00000E+00 -0.90492E-01  0.10868E+00  0.00000E+00 -0.98097E-01
          0.10471E+00  0.00000E+00 -0.10546E+00  0.10088E+00  0.00000E+00 -0.11261E+00  0.97201E-01  0.00000E+00 -0.11955E+00  0.93697E-01  0.00000E+00 -0.12629E+00  0.90384E-01  0.00000E+00 -0.13284E+00  0.87279E-01  0.00000E+00 -0.13923E+00
          0.84398E-01  0.00000E+00 -0.14544E+00  0.81761E-01  0.00000E+00 -0.15150E+00  0.79383E-01  0.00000E+00 -0.15743E+00  0.77279E-01  0.00000E+00 -0.16320E+00  0.75465E-01  0.00000E+00 -0.16892E+00  0.73943E-01  0.00000E+00 -0.17444E+00
          0.72727E-01  0.00000E+00 -0.18002E+00  0.71793E-01  0.00000E+00 -0.18536E+00  0.71178E-01  0.00000E+00 -0.19075E+00  0.70777E-01  0.00000E+00 -0.19624E+00  0.70718E-01  0.00000E+00 -0.20067E+00  0.70411E-01  0.00000E+00 -0.20882E+00
          0.14421E+00  0.00000E+00 -0.40740E-02  0.14897E+00  0.00000E+00 -0.11225E-01  0.15041E+00  0.00000E+00 -0.20702E-01  0.14934E+00  0.00000E+00 -0.30557E-01  0.14711E+00  0.00000E+00 -0.39938E-01  0.14373E+00  0.00000E+00 -0.49215E-01
          0.13970E+00  0.00000E+00 -0.58237E-01  0.13533E+00  0.00000E+00 -0.66942E-01  0.13079E+00  0.00000E+00 -0.75355E-01  0.12624E+00  0.00000E+00 -0.83511E-01  0.12173E+00  0.00000E+00 -0.91379E-01  0.11733E+00  0.00000E+00 -0.99018E-01
          0.11306E+00  0.00000E+00 -0.10641E+00  0.10894E+00  0.00000E+00 -0.11359E+00  0.10500E+00  0.00000E+00 -0.12056E+00  0.10125E+00  0.00000E+00 -0.12733E+00  0.97700E-01  0.00000E+00 -0.13391E+00  0.94379E-01  0.00000E+00 -0.14033E+00
          0.91297E-01  0.00000E+00 -0.14658E+00  0.88477E-01  0.00000E+00 -0.15268E+00  0.85932E-01  0.00000E+00 -0.15866E+00  0.83680E-01  0.00000E+00 -0.16448E+00  0.81735E-01  0.00000E+00 -0.17027E+00  0.80101E-01  0.00000E+00 -0.17585E+00
          0.78791E-01  0.00000E+00 -0.18152E+00  0.77779E-01  0.00000E+00 -0.18692E+00  0.77102E-01  0.00000E+00 -0.19243E+00  0.76649E-01  0.00000E+00 -0.19799E+00  0.76559E-01  0.00000E+00 -0.20252E+00  0.76185E-01  0.00000E+00 -0.21084E+00
          0.15434E+00  0.00000E+00 -0.40486E-02  0.16023E+00  0.00000E+00 -0.11266E-01  0.16205E+00  0.00000E+00 -0.20886E-01  0.16095E+00  0.00000E+00 -0.30904E-01  0.15852E+00  0.00000E+00 -0.40441E-01  0.15482E+00  0.00000E+00 -0.49831E-01