<?xml version="1.0"?>
<VTKFile type="UnstructuredGrid" version="0.1" byte_order="LittleEndian" compressor="vtkZLibDataCompressor">
<UnstructuredGrid>
  <Piece NumberOfPoints="1800"        NumberOfCells="1"      >
    <Points>
      <DataArray type="Float32" NumberOfComponents="3" format="ascii" >
        0.36832E-01  0.00000E+00  0.24853E-02  0.23326E-01  0.00000E+00  0.39377E-02  0.93452E-02  0.00000E+00  0.53759E-02  0.16175E-01  0.00000E+00  0.11148E-01  0.71439E-02  0.00000E+00  0.14252E-01  0.83941E-02  0.00000E+00  0.21010E-01
        0.79011E-02  0.00000E+00  0.27180E-01  0.90953E-02  0.00000E+00  0.33488E-01  0.81950E-02  0.00000E+00  0.39824E-01  0.88815E-02  0.00000E+00  0.46150E-01  0.87592E-02  0.00000E+00  0.52320E-01  0.99344E-02  0.00000E+00  0.58177E-01
        0.10099E-01  0.00000E+00  0.63676E-01  0.10681E-01  0.00000E+00  0.68944E-01  0.10696E-01  0.00000E+00  0.74001E-01  0.10796E-01  0.00000E+00  0.79015E-01  0.10661E-01  0.00000E+00  0.83994E-01  0.10531E-01  0.00000E+00  0.89016E-01
        0.10308E-01  0.00000E+00  0.94074E-01  0.10085E-01  0.00000E+00  0.99177E-01  0.98345E-02  0.00000E+00  0.10433E+00  0.95522E-02  0.00000E+00  0.10954E+00  0.92654E-02  0.00000E+00  0.11485E+00  0.90082E-02  0.00000E+00  0.12028E+00
        0.86673E-02  0.00000E+00  0.12573E+00  0.81715E-02  0.00000E+00  0.13119E+00  0.81229E-02  0.00000E+00  0.13711E+00  0.84727E-02  0.00000E+00  0.14345E+00  0.67421E-02  0.00000E+00  0.14889E+00  0.69151E-02  0.00000E+00  0.15305E+00
        0.49851E-01  0.00000E+00  0.37038E-02  0.29801E-01  0.00000E+00  0.10911E-01  0.43928E-01  0.00000E+00  0.11603E-01  0.36494E-01  0.00000E+00  0.17343E-01  0.22404E-01  0.00000E+00  0.17984E-01  0.32883E-01  0.00000E+00  0.24994E-01
        0.20906E-01  0.00000E+00  0.26419E-01  0.30897E-01  0.00000E+00  0.32915E-01  0.20676E-01  0.00000E+00  0.36141E-01  0.30669E-01  0.00000E+00  0.41865E-01  0.20895E-01  0.00000E+00  0.46307E-01  0.30715E-01  0.00000E+00  0.51227E-01
        0.22160E-01  0.00000E+00  0.56611E-01  0.31007E-01  0.00000E+00  0.61412E-01  0.25255E-01  0.00000E+00  0.67212E-01  0.29868E-01  0.00000E+00  0.72612E-01  0.27745E-01  0.00000E+00  0.78331E-01  0.28458E-01  0.00000E+00  0.84166E-01
        0.27871E-01  0.00000E+00  0.89896E-01  0.27624E-01  0.00000E+00  0.95709E-01  0.27212E-01  0.00000E+00  0.10157E+00  0.26799E-01  0.00000E+00  0.10742E+00  0.26335E-01  0.00000E+00  0.11317E+00  0.25889E-01  0.00000E+00  0.11915E+00
        0.25306E-01  0.00000E+00  0.12529E+00  0.25160E-01  0.00000E+00  0.13074E+00  0.23896E-01  0.00000E+00  0.13662E+00  0.24427E-01  0.00000E+00  0.14403E+00  0.22820E-01  0.00000E+00  0.14870E+00  0.23108E-01  0.00000E+00  0.15303E+00
        0.66752E-01  0.00000E+00  0.34416E-02  0.57470E-01  0.00000E+00  0.97188E-02  0.72314E-01  0.00000E+00  0.11596E-01  0.62589E-01  0.00000E+00  0.17006E-01  0.49458E-01  0.00000E+00  0.19424E-01  0.58133E-01  0.00000E+00  0.24782E-01
        0.44155E-01  0.00000E+00  0.27339E-01  0.53963E-01  0.00000E+00  0.32648E-01  0.42047E-01  0.00000E+00  0.36150E-01  0.52172E-01  0.00000E+00  0.41500E-01  0.41206E-01  0.00000E+00  0.45548E-01  0.51302E-01  0.00000E+00  0.50888E-01
        0.40867E-01  0.00000E+00  0.55428E-01  0.50103E-01  0.00000E+00  0.60759E-01  0.42649E-01  0.00000E+00  0.65990E-01  0.47834E-01  0.00000E+00  0.71660E-01  0.44974E-01  0.00000E+00  0.77400E-01  0.45942E-01  0.00000E+00  0.83330E-01
        0.45098E-01  0.00000E+00  0.89170E-01  0.44856E-01  0.00000E+00  0.95072E-01  0.44339E-01  0.00000E+00  0.10104E+00  0.43915E-01  0.00000E+00  0.10701E+00  0.43320E-01  0.00000E+00  0.11286E+00  0.42876E-01  0.00000E+00  0.11892E+00
        0.42186E-01  0.00000E+00  0.12513E+00  0.41706E-01  0.00000E+00  0.13071E+00  0.41056E-01  0.00000E+00  0.13674E+00  0.40677E-01  0.00000E+00  0.14404E+00  0.39619E-01  0.00000E+00  0.14854E+00  0.39624E-01  0.00000E+00  0.15308E+00
        0.96815E-01  0.00000E+00  0.33832E-02  0.80981E-01  0.00000E+00  0.61220E-02  0.89551E-01  0.00000E+00  0.11019E-01  0.86768E-01  0.00000E+00  0.19098E-01  0.74581E-01  0.00000E+00  0.20056E-01  0.81683E-01  0.00000E+00  0.26705E-01
        0.68320E-01  0.00000E+00  0.27918E-01  0.77049E-01  0.00000E+00  0.34656E-01  0.64465E-01  0.00000E+00  0.36617E-01  0.73671E-01  0.00000E+00  0.42968E-01  0.62170E-01  0.00000E+00  0.45847E-01  0.71582E-01  0.00000E+00  0.52101E-01
        0.60811E-01  0.00000E+00  0.55844E-01  0.69444E-01  0.00000E+00  0.61892E-01  0.60844E-01  0.00000E+00  0.66309E-01  0.66234E-01  0.00000E+00  0.72152E-01  0.62400E-01  0.00000E+00  0.77620E-01  0.63454E-01  0.00000E+00  0.83577E-01
        0.62415E-01  0.00000E+00  0.89385E-01  0.62143E-01  0.00000E+00  0.95289E-01  0.61460E-01  0.00000E+00  0.10124E+00  0.61051E-01  0.00000E+00  0.10720E+00  0.60332E-01  0.00000E+00  0.11304E+00  0.59815E-01  0.00000E+00  0.11911E+00
        0.59164E-01  0.00000E+00  0.12528E+00  0.58508E-01  0.00000E+00  0.13078E+00  0.58070E-01  0.00000E+00  0.13683E+00  0.57373E-01  0.00000E+00  0.14410E+00  0.57501E-01  0.00000E+00  0.14852E+00  0.57100E-01  0.00000E+00  0.15296E+00
        0.12163E+00  0.00000E+00  0.33993E-02  0.10920E+00  0.00000E+00  0.69457E-02  0.10099E+00  0.00000E+00  0.13362E-01  0.11121E+00  0.00000E+00  0.18217E-01  0.98675E-01  0.00000E+00  0.22112E-01  0.10826E+00  0.00000E+00  0.26852E-01
        0.92630E-01  0.00000E+00  0.28839E-01  0.10083E+00  0.00000E+00  0.34875E-01  0.87869E-01  0.00000E+00  0.37501E-01  0.95655E-01  0.00000E+00  0.43744E-01  0.83649E-01  0.00000E+00  0.46481E-01  0.91627E-01  0.00000E+00  0.52909E-01
        0.80879E-01  0.00000E+00  0.56488E-01  0.88276E-01  0.00000E+00  0.63032E-01  0.79819E-01  0.00000E+00  0.67106E-01  0.84100E-01  0.00000E+00  0.73418E-01  0.80256E-01  0.00000E+00  0.78695E-01  0.80914E-01  0.00000E+00  0.84637E-01
        0.79737E-01  0.00000E+00  0.90399E-01  0.79404E-01  0.00000E+00  0.96271E-01  0.78658E-01  0.00000E+00  0.10217E+00  0.78175E-01  0.00000E+00  0.10807E+00  0.77463E-01  0.00000E+00  0.11383E+00  0.76870E-01  0.00000E+00  0.11984E+00
        0.76250E-01  0.00000E+00  0.12592E+00  0.75718E-01  0.00000E+00  0.13132E+00  0.75121E-01  0.00000E+00  0.13730E+00  0.74759E-01  0.00000E+00  0.14447E+00  0.74197E-01  0.00000E+00  0.14872E+00  0.74193E-01  0.00000E+00  0.15321E+00
        0.14036E+00  0.00000E+00  0.33500E-02  0.13177E+00  0.00000E+00  0.91547E-02  0.11946E+00  0.00000E+00  0.12750E-01  0.13980E+00  0.00000E+00  0.15754E-01  0.12740E+00  0.00000E+00  0.18600E-01  0.13510E+00  0.00000E+00  0.24168E-01
        0.12040E+00  0.00000E+00  0.24991E-01  0.12165E+00  0.00000E+00  0.33492E-01  0.11161E+00  0.00000E+00  0.35703E-01  0.11597E+00  0.00000E+00  0.43612E-01  0.10508E+00  0.00000E+00  0.45569E-01  0.10919E+00  0.00000E+00  0.53761E-01
        0.10013E+00  0.00000E+00  0.57417E-01  0.10584E+00  0.00000E+00  0.64569E-01  0.98560E-01  0.00000E+00  0.68752E-01  0.10143E+00  0.00000E+00  0.75221E-01  0.98122E-01  0.00000E+00  0.80421E-01  0.98445E-01  0.00000E+00  0.86438E-01
        0.97122E-01  0.00000E+00  0.92106E-01  0.96893E-01  0.00000E+00  0.97929E-01  0.95956E-01  0.00000E+00  0.10377E+00  0.95598E-01  0.00000E+00  0.10959E+00  0.94847E-01  0.00000E+00  0.11526E+00  0.94221E-01  0.00000E+00  0.12121E+00
        0.93741E-01  0.00000E+00  0.12719E+00  0.93091E-01  0.00000E+00  0.13239E+00  0.92589E-01  0.00000E+00  0.13841E+00  0.92305E-01  0.00000E+00  0.14556E+00  0.92172E-01  0.00000E+00  0.14951E+00  0.91961E-01  0.00000E+00  0.15387E+00
        0.15806E+00  0.00000E+00  0.32458E-02  0.16721E+00  0.00000E+00  0.84181E-02  0.14935E+00  0.00000E+00  0.96588E-02  0.16442E+00  0.00000E+00  0.16275E-01  0.15221E+00  0.00000E+00  0.17571E-01  0.15944E+00  0.00000E+00  0.23897E-01
        0.14758E+00  0.00000E+00  0.25623E-01  0.14256E+00  0.00000E+00  0.32375E-01  0.13189E+00  0.00000E+00  0.33380E-01  0.13004E+00  0.00000E+00  0.41502E-01  0.12784E+00  0.00000E+00  0.48973E-01  0.11955E+00  0.00000E+00  0.53204E-01
        0.12650E+00  0.00000E+00  0.60616E-01  0.11730E+00  0.00000E+00  0.63869E-01  0.12111E+00  0.00000E+00  0.70535E-01  0.11740E+00  0.00000E+00  0.75603E-01  0.11656E+00  0.00000E+00  0.81564E-01  0.11595E+00  0.00000E+00  0.87328E-01
        0.11487E+00  0.00000E+00  0.93019E-01  0.11465E+00  0.00000E+00  0.98829E-01  0.11366E+00  0.00000E+00  0.10462E+00  0.11338E+00  0.00000E+00  0.11038E+00  0.11268E+00  0.00000E+00  0.11601E+00  0.11203E+00  0.00000E+00  0.12192E+00
        0.11164E+00  0.00000E+00  0.12785E+00  0.11113E+00  0.00000E+00  0.13294E+00  0.11050E+00  0.00000E+00  0.13895E+00  0.11039E+00  0.00000E+00  0.14607E+00  0.10989E+00  0.00000E+00  0.14985E+00  0.10977E+00  0.00000E+00  0.15419E+00
        0.17828E+00  0.00000E+00  0.33502E-02  0.18854E+00  0.00000E+00  0.91084E-02  0.17864E+00  0.00000E+00  0.13183E-01  0.19765E+00  0.00000E+00  0.14593E-01  0.18656E+00  0.00000E+00  0.20271E-01  0.17436E+00  0.00000E+00  0.21137E-01
        0.17016E+00  0.00000E+00  0.29199E-01  0.15890E+00  0.00000E+00  0.32510E-01  0.15386E+00  0.00000E+00  0.39221E-01  0.14357E+00  0.00000E+00  0.40812E-01  0.14657E+00  0.00000E+00  0.49077E-01  0.13726E+00  0.00000E+00  0.52018E-01
        0.14436E+00  0.00000E+00  0.59022E-01  0.13654E+00  0.00000E+00  0.63241E-01  0.13916E+00  0.00000E+00  0.70130E-01  0.13580E+00  0.00000E+00  0.75285E-01  0.13448E+00  0.00000E+00  0.81078E-01  0.13398E+00  0.00000E+00  0.86841E-01
        0.13286E+00  0.00000E+00  0.92505E-01  0.13262E+00  0.00000E+00  0.98276E-01  0.13165E+00  0.00000E+00  0.10404E+00  0.13138E+00  0.00000E+00  0.10978E+00  0.13076E+00  0.00000E+00  0.11539E+00  0.13008E+00  0.00000E+00  0.12129E+00
        0.12980E+00  0.00000E+00  0.12718E+00  0.12928E+00  0.00000E+00  0.13225E+00  0.12862E+00  0.00000E+00  0.13829E+00  0.12862E+00  0.00000E+00  0.14538E+00  0.12820E+00  0.00000E+00  0.14911E+00  0.12798E+00  0.00000E+00  0.15349E+00
[...]
<PointData>
      <DataArray type="Float32" Name="Velocity vectors"  NumberOfComponents="3"  format="ascii" >
          0.83016E-01  0.00000E+00  0.10735E-02  0.64289E-01  0.00000E+00  0.33294E-02  0.32641E-01  0.00000E+00 -0.18984E-01  0.88438E-01  0.00000E+00 -0.28785E-01 -0.80770E-02  0.00000E+00 -0.63600E-01  0.81583E-02  0.00000E+00 -0.70995E-01
          0.43179E-02  0.00000E+00 -0.78937E-01  0.12785E-01  0.00000E+00 -0.82869E-01 -0.46289E-02  0.00000E+00 -0.85449E-01 -0.24402E-02  0.00000E+00 -0.83000E-01 -0.11039E-01  0.00000E+00 -0.78888E-01  0.45439E-03  0.00000E+00 -0.74460E-01
         -0.22661E-02  0.00000E+00 -0.70536E-01  0.99364E-02  0.00000E+00 -0.66151E-01  0.12561E-01  0.00000E+00 -0.66865E-01  0.18822E-01  0.00000E+00 -0.70066E-01  0.21075E-01  0.00000E+00 -0.75729E-01  0.23039E-01  0.00000E+00 -0.81338E-01
          0.22764E-01  0.00000E+00 -0.87512E-01  0.22913E-01  0.00000E+00 -0.93834E-01  0.22225E-01  0.00000E+00 -0.10090E+00  0.21292E-01  0.00000E+00 -0.10825E+00  0.20648E-01  0.00000E+00 -0.11502E+00  0.19582E-01  0.00000E+00 -0.12252E+00
          0.16230E-01  0.00000E+00 -0.13183E+00  0.13681E-01  0.00000E+00 -0.13981E+00  0.15465E-01  0.00000E+00 -0.14450E+00  0.11315E-01  0.00000E+00 -0.15199E+00  0.40324E-02  0.00000E+00 -0.16327E+00  0.51663E-02  0.00000E+00 -0.17075E+00
          0.96182E-01  0.00000E+00 -0.19944E-02  0.77112E-01  0.00000E+00 -0.30013E-02  0.81509E-01  0.00000E+00 -0.98306E-02  0.86819E-01  0.00000E+00 -0.10333E-01  0.40148E-01  0.00000E+00 -0.23011E-01  0.39630E-01  0.00000E+00 -0.27432E-01
          0.16336E-01  0.00000E+00 -0.42572E-01  0.26405E-01  0.00000E+00 -0.39746E-01  0.11182E-01  0.00000E+00 -0.55248E-01  0.17159E-01  0.00000E+00 -0.49122E-01  0.57257E-03  0.00000E+00 -0.64441E-01  0.12784E-01  0.00000E+00 -0.65804E-01
         -0.18456E-01  0.00000E+00 -0.77827E-01  0.40087E-01  0.00000E+00 -0.85852E-01 -0.37262E-01  0.00000E+00 -0.91888E-01  0.64883E-01  0.00000E+00 -0.11408E+00  0.12945E-01  0.00000E+00 -0.11426E+00  0.50095E-01  0.00000E+00 -0.11894E+00
          0.40238E-01  0.00000E+00 -0.12577E+00  0.44099E-01  0.00000E+00 -0.12894E+00  0.42373E-01  0.00000E+00 -0.13296E+00  0.41457E-01  0.00000E+00 -0.13826E+00  0.39421E-01  0.00000E+00 -0.14291E+00  0.38450E-01  0.00000E+00 -0.14493E+00
          0.34663E-01  0.00000E+00 -0.14985E+00  0.37116E-01  0.00000E+00 -0.15828E+00  0.27789E-01  0.00000E+00 -0.15709E+00  0.30190E-01  0.00000E+00 -0.16100E+00  0.23511E-01  0.00000E+00 -0.17404E+00  0.24161E-01  0.00000E+00 -0.17772E+00
          0.10246E+00  0.00000E+00 -0.83790E-03  0.10027E+00  0.00000E+00 -0.56439E-02  0.12880E+00  0.00000E+00 -0.15178E-01  0.12451E+00  0.00000E+00 -0.17280E-01  0.10235E+00  0.00000E+00 -0.19757E-01  0.89394E-01  0.00000E+00 -0.25387E-01
          0.53724E-01  0.00000E+00 -0.33969E-01  0.57110E-01  0.00000E+00 -0.42175E-01  0.36750E-01  0.00000E+00 -0.46478E-01  0.47725E-01  0.00000E+00 -0.53756E-01  0.33958E-01  0.00000E+00 -0.58764E-01  0.49678E-01  0.00000E+00 -0.68678E-01
          0.24408E-01  0.00000E+00 -0.77811E-01  0.74995E-01  0.00000E+00 -0.82520E-01 -0.71699E-02  0.00000E+00 -0.98342E-01  0.10081E+00  0.00000E+00 -0.11710E+00  0.24869E-01  0.00000E+00 -0.12117E+00  0.75055E-01  0.00000E+00 -0.12552E+00
          0.57148E-01  0.00000E+00 -0.13501E+00  0.63398E-01  0.00000E+00 -0.13792E+00  0.59663E-01  0.00000E+00 -0.14219E+00  0.59546E-01  0.00000E+00 -0.14824E+00  0.55440E-01  0.00000E+00 -0.15307E+00  0.55079E-01  0.00000E+00 -0.15550E+00
          0.50786E-01  0.00000E+00 -0.16136E+00  0.49517E-01  0.00000E+00 -0.16849E+00  0.45744E-01  0.00000E+00 -0.16697E+00  0.44491E-01  0.00000E+00 -0.17190E+00  0.40444E-01  0.00000E+00 -0.18244E+00  0.41003E-01  0.00000E+00 -0.18533E+00
          0.16133E+00  0.00000E+00  0.44918E-03  0.13095E+00  0.00000E+00 -0.67265E-02  0.14190E+00  0.00000E+00 -0.16160E-01  0.13212E+00  0.00000E+00 -0.20227E-01  0.12418E+00  0.00000E+00 -0.13985E-01  0.12282E+00  0.00000E+00 -0.21692E-01
          0.95157E-01  0.00000E+00 -0.30443E-01  0.94611E-01  0.00000E+00 -0.36405E-01  0.69532E-01  0.00000E+00 -0.45615E-01  0.81238E-01  0.00000E+00 -0.51616E-01  0.64889E-01  0.00000E+00 -0.60215E-01  0.86112E-01  0.00000E+00 -0.66672E-01
          0.63520E-01  0.00000E+00 -0.80282E-01  0.11264E+00  0.00000E+00 -0.81789E-01  0.36999E-01  0.00000E+00 -0.10037E+00  0.13918E+00  0.00000E+00 -0.11204E+00  0.50229E-01  0.00000E+00 -0.12992E+00  0.10315E+00  0.00000E+00 -0.13005E+00
          0.78773E-01  0.00000E+00 -0.14081E+00  0.85608E-01  0.00000E+00 -0.14487E+00  0.78575E-01  0.00000E+00 -0.14924E+00  0.79807E-01  0.00000E+00 -0.15548E+00  0.74019E-01  0.00000E+00 -0.16082E+00  0.72679E-01  0.00000E+00 -0.16343E+00
          0.69012E-01  0.00000E+00 -0.16949E+00  0.65118E-01  0.00000E+00 -0.17694E+00  0.62750E-01  0.00000E+00 -0.17566E+00  0.59076E-01  0.00000E+00 -0.18068E+00  0.60077E-01  0.00000E+00 -0.19031E+00  0.58552E-01  0.00000E+00 -0.19287E+00
          0.18977E+00  0.00000E+00 -0.69404E-04  0.17433E+00  0.00000E+00 -0.74086E-02  0.15202E+00  0.00000E+00 -0.13586E-01  0.16049E+00  0.00000E+00 -0.23246E-01  0.14147E+00  0.00000E+00 -0.18655E-01  0.15089E+00  0.00000E+00 -0.30644E-01
          0.12652E+00  0.00000E+00 -0.30566E-01  0.14262E+00  0.00000E+00 -0.41567E-01  0.11287E+00  0.00000E+00 -0.41240E-01  0.13586E+00  0.00000E+00 -0.55613E-01  0.10339E+00  0.00000E+00 -0.63680E-01  0.13048E+00  0.00000E+00 -0.77519E-01
          0.10455E+00  0.00000E+00 -0.87406E-01  0.15899E+00  0.00000E+00 -0.91418E-01  0.80709E-01  0.00000E+00 -0.11244E+00  0.17616E+00  0.00000E+00 -0.11520E+00  0.85857E-01  0.00000E+00 -0.13867E+00  0.12735E+00  0.00000E+00 -0.13529E+00
          0.10063E+00  0.00000E+00 -0.14565E+00  0.10641E+00  0.00000E+00 -0.14869E+00  0.98174E-01  0.00000E+00 -0.15238E+00  0.97959E-01  0.00000E+00 -0.15777E+00  0.92119E-01  0.00000E+00 -0.16204E+00  0.89048E-01  0.00000E+00 -0.16436E+00
          0.84951E-01  0.00000E+00 -0.17016E+00  0.81943E-01  0.00000E+00 -0.17641E+00  0.78107E-01  0.00000E+00 -0.17527E+00  0.76104E-01  0.00000E+00 -0.18018E+00  0.73900E-01  0.00000E+00 -0.18966E+00  0.74212E-01  0.00000E+00 -0.19213E+00
          0.20658E+00  0.00000E+00 -0.13899E-02  0.19106E+00  0.00000E+00 -0.88641E-02  0.17642E+00  0.00000E+00 -0.39400E-02  0.22857E+00  0.00000E+00 -0.31750E-01  0.19383E+00  0.00000E+00 -0.21961E-01  0.20942E+00  0.00000E+00 -0.45622E-01
          0.16815E+00  0.00000E+00 -0.33125E-01  0.18062E+00  0.00000E+00 -0.37770E-01  0.16405E+00  0.00000E+00 -0.50565E-01  0.18767E+00  0.00000E+00 -0.60566E-01  0.15338E+00  0.00000E+00 -0.75306E-01  0.17052E+00  0.00000E+00 -0.77951E-01
          0.14159E+00  0.00000E+00 -0.99329E-01  0.20004E+00  0.00000E+00 -0.90121E-01  0.11417E+00  0.00000E+00 -0.12719E+00  0.20165E+00  0.00000E+00 -0.11712E+00  0.11535E+00  0.00000E+00 -0.13981E+00  0.14443E+00  0.00000E+00 -0.13534E+00
          0.11408E+00  0.00000E+00 -0.14534E+00  0.12242E+00  0.00000E+00 -0.14616E+00  0.10927E+00  0.00000E+00 -0.14991E+00  0.11245E+00  0.00000E+00 -0.15387E+00  0.10552E+00  0.00000E+00 -0.15694E+00  0.10220E+00  0.00000E+00 -0.15862E+00
          0.10044E+00  0.00000E+00 -0.16394E+00  0.95872E-01  0.00000E+00 -0.16983E+00  0.93025E-01  0.00000E+00 -0.16785E+00  0.91813E-01  0.00000E+00 -0.17259E+00  0.91675E-01  0.00000E+00 -0.18257E+00  0.91033E-01  0.00000E+00 -0.18472E+00
          0.25590E+00  0.00000E+00 -0.34570E-02  0.27999E+00  0.00000E+00 -0.15957E-01  0.23347E+00  0.00000E+00 -0.21849E-01  0.25919E+00  0.00000E+00 -0.25072E-01  0.24836E+00  0.00000E+00 -0.26341E-01  0.25391E+00  0.00000E+00 -0.39604E-01
          0.22856E+00  0.00000E+00 -0.43220E-01  0.21105E+00  0.00000E+00 -0.59735E-01  0.18819E+00  0.00000E+00 -0.73086E-01  0.20187E+00  0.00000E+00 -0.66963E-01  0.19751E+00  0.00000E+00 -0.57283E-01  0.17452E+00  0.00000E+00 -0.83884E-01
          0.22614E+00  0.00000E+00 -0.77674E-01  0.15174E+00  0.00000E+00 -0.10872E+00  0.24515E+00  0.00000E+00 -0.10663E+00  0.15599E+00  0.00000E+00 -0.13546E+00  0.15285E+00  0.00000E+00 -0.12338E+00  0.14721E+00  0.00000E+00 -0.13054E+00
          0.12740E+00  0.00000E+00 -0.13661E+00  0.13567E+00  0.00000E+00 -0.13619E+00  0.12015E+00  0.00000E+00 -0.14136E+00  0.12524E+00  0.00000E+00 -0.14525E+00  0.11864E+00  0.00000E+00 -0.14793E+00  0.11479E+00  0.00000E+00 -0.14987E+00
          0.11500E+00  0.00000E+00 -0.15530E+00  0.11273E+00  0.00000E+00 -0.16097E+00  0.10909E+00  0.00000E+00 -0.15872E+00  0.11102E+00  0.00000E+00 -0.16341E+00  0.10981E+00  0.00000E+00 -0.17449E+00  0.10986E+00  0.00000E+00 -0.17662E+00
          0.29645E+00  0.00000E+00 -0.51763E-03  0.30900E+00  0.00000E+00 -0.11671E-01  0.29251E+00  0.00000E+00 -0.13672E-01  0.32560E+00  0.00000E+00 -0.27166E-01  0.31140E+00  0.00000E+00 -0.31415E-01  0.27747E+00  0.00000E+00 -0.31189E-01
          0.26337E+00  0.00000E+00 -0.47356E-01  0.22967E+00  0.00000E+00 -0.51043E-01  0.20860E+00  0.00000E+00 -0.65858E-01  0.18790E+00  0.00000E+00 -0.59328E-01  0.23106E+00  0.00000E+00 -0.63635E-01  0.20277E+00  0.00000E+00 -0.88867E-01
          0.26023E+00  0.00000E+00 -0.81492E-01  0.19624E+00  0.00000E+00 -0.10774E+00  0.26244E+00  0.00000E+00 -0.99721E-01  0.18468E+00  0.00000E+00 -0.12322E+00  0.16548E+00  0.00000E+00 -0.11712E+00  0.16570E+00  0.00000E+00 -0.12375E+00
          0.14371E+00  0.00000E+00 -0.13096E+00  0.15141E+00  0.00000E+00 -0.13108E+00  0.13669E+00  0.00000E+00 -0.13618E+00  0.14131E+00  0.00000E+00 -0.14095E+00  0.13634E+00  0.00000E+00 -0.14386E+00  0.13179E+00  0.00000E+00 -0.14658E+00
          0.13370E+00  0.00000E+00 -0.15274E+00  0.13143E+00  0.00000E+00 -0.15879E+00  0.12792E+00  0.00000E+00 -0.15690E+00  0.13177E+00  0.00000E+00 -0.16219E+00  0.13121E+00  0.00000E+00 -0.17341E+00  0.13085E+00  0.00000E+00 -0.17513E+00
          0.32977E+00  0.00000E+00 -0.13541E-02  0.35401E+00  0.00000E+00 -0.14675E-01  0.35883E+00  0.00000E+00 -0.72257E-02  0.37649E+00  0.00000E+00 -0.18930E-01  0.33874E+00  0.00000E+00 -0.37417E-01  0.32720E+00  0.00000E+00 -0.28679E-01
          0.29819E+00  0.00000E+00 -0.50828E-01  0.28878E+00  0.00000E+00 -0.54001E-01  0.26640E+00  0.00000E+00 -0.66922E-01  0.24956E+00  0.00000E+00 -0.78216E-01  0.27068E+00  0.00000E+00 -0.77213E-01  0.23185E+00  0.00000E+00 -0.11286E+00
          0.27710E+00  0.00000E+00 -0.10697E+00  0.21771E+00  0.00000E+00 -0.11421E+00  0.23008E+00  0.00000E+00 -0.96218E-01  0.23909E+00  0.00000E+00 -0.91532E-01  0.16975E+00  0.00000E+00 -0.11105E+00  0.18978E+00  0.00000E+00 -0.10609E+00
          0.15672E+00  0.00000E+00 -0.11693E+00  0.17119E+00  0.00000E+00 -0.11926E+00  0.15290E+00  0.00000E+00 -0.12378E+00  0.16156E+00  0.00000E+00 -0.12864E+00  0.15595E+00  0.00000E+00 -0.13237E+00  0.15182E+00  0.00000E+00 -0.13515E+00
          0.15536E+00  0.00000E+00 -0.14131E+00  0.15320E+00  0.00000E+00 -0.14831E+00  0.14904E+00  0.00000E+00 -0.14648E+00  0.15358E+00  0.00000E+00 -0.15086E+00  0.15216E+00  0.00000E+00 -0.16366E+00  0.15201E+00  0.00000E+00 -0.16638E+00
          0.37156E+00  0.00000E+00 -0.27273E-03  0.37866E+00  0.00000E+00 -0.98325E-02  0.41701E+00  0.00000E+00 -0.14492E-01  0.39074E+00  0.00000E+00 -0.22917E-01  0.40073E+00  0.00000E+00 -0.35644E-01  0.38501E+00  0.00000E+00 -0.34973E-01
          0.34827E+00  0.00000E+00 -0.50959E-01  0.33867E+00  0.00000E+00 -0.47155E-01  0.30883E+00  0.00000E+00 -0.66431E-01  0.29774E+00  0.00000E+00 -0.62213E-01  0.27097E+00  0.00000E+00 -0.81550E-01  0.26752E+00  0.00000E+00 -0.73277E-01
          0.23948E+00  0.00000E+00 -0.83130E-01  0.30019E+00  0.00000E+00 -0.80005E-01  0.19912E+00  0.00000E+00 -0.11223E+00  0.26072E+00  0.00000E+00 -0.10826E+00  0.19663E+00  0.00000E+00 -0.12470E+00  0.21244E+00  0.00000E+00 -0.12054E+00
          0.18612E+00  0.00000E+00 -0.12936E+00  0.19306E+00  0.00000E+00 -0.13243E+00  0.17804E+00  0.00000E+00 -0.13737E+00  0.18285E+00  0.00000E+00 -0.14254E+00  0.17891E+00  0.00000E+00 -0.14572E+00  0.17475E+00  0.00000E+00 -0.14880E+00
          0.17776E+00  0.00000E+00 -0.15511E+00  0.17622E+00  0.00000E+00 -0.16075E+00  0.17179E+00  0.00000E+00 -0.15921E+00  0.17643E+00  0.00000E+00 -0.16452E+00  0.17509E+00  0.00000E+00 -0.17559E+00  0.17451E+00  0.00000E+00 -0.17706E+00
          0.39354E+00  0.00000E+00 -0.14936E-02  0.42652E+00  0.00000E+00 -0.13027E-01  0.44992E+00  0.00000E+00 -0.12490E-01  0.42852E+00  0.00000E+00 -0.24290E-01  0.42426E+00  0.00000E+00 -0.26475E-01  0.41132E+00  0.00000E+00 -0.27801E-01
          0.40003E+00  0.00000E+00 -0.42637E-01  0.39033E+00  0.00000E+00 -0.43206E-01  0.36255E+00  0.00000E+00 -0.65905E-01  0.34564E+00  0.00000E+00 -0.65396E-01  0.31882E+00  0.00000E+00 -0.83487E-01  0.29968E+00  0.00000E+00 -0.81180E-01
          0.26319E+00  0.00000E+00 -0.10710E+00  0.32606E+00  0.00000E+00 -0.98242E-01  0.23271E+00  0.00000E+00 -0.12409E+00  0.25989E+00  0.00000E+00 -0.10620E+00  0.23386E+00  0.00000E+00 -0.11813E+00  0.23144E+00  0.00000E+00 -0.11936E+00
          0.20664E+00  0.00000E+00 -0.12568E+00  0.21536E+00  0.00000E+00 -0.12820E+00  0.19678E+00  0.00000E+00 -0.13415E+00  0.20326E+00  0.00000E+00 -0.13833E+00  0.19832E+00  0.00000E+00 -0.14170E+00  0.19329E+00  0.00000E+00 -0.14484E+00
          0.19703E+00  0.00000E+00 -0.15056E+00  0.19511E+00  0.00000E+00 -0.15622E+00  0.19022E+00  0.00000E+00 -0.15502E+00  0.19545E+00  0.00000E+00 -0.15970E+00  0.19345E+00  0.00000E+00 -0.17027E+00  0.19320E+00  0.00000E+00 -0.17260E+00
          0.44976E+00  0.00000E+00 -0.11306E-02  0.47230E+00  0.00000E+00 -0.11598E-01  0.48310E+00  0.00000E+00 -0.92275E-02  0.45311E+00  0.00000E+00 -0.21138E-01  0.45254E+00  0.00000E+00 -0.24918E-01  0.44226E+00  0.00000E+00 -0.24229E-01
          0.43444E+00  0.00000E+00 -0.37654E-01  0.42119E+00  0.00000E+00 -0.40950E-01  0.40613E+00  0.00000E+00 -0.50562E-01  0.38616E+00  0.00000E+00 -0.55775E-01  0.35629E+00  0.00000E+00 -0.75509E-01  0.33429E+00  0.00000E+00 -0.78329E-01
          0.30907E+00  0.00000E+00 -0.10545E+00  0.33643E+00  0.00000E+00 -0.86188E-01  0.24655E+00  0.00000E+00 -0.12757E+00  0.27409E+00  0.00000E+00 -0.10609E+00  0.25341E+00  0.00000E+00 -0.11964E+00  0.25132E+00  0.00000E+00 -0.12224E+00
          0.22725E+00  0.00000E+00 -0.12606E+00  0.23545E+00  0.00000E+00 -0.12820E+00  0.21672E+00  0.00000E+00 -0.13477E+00  0.22239E+00  0.00000E+00 -0.13847E+00  0.21751E+00  0.00000E+00 -0.14146E+00  0.21268E+00  0.00000E+00 -0.14483E+00
          0.21627E+00  0.00000E+00 -0.15054E+00  0.21470E+00  0.00000E+00 -0.15580E+00  0.20966E+00  0.00000E+00 -0.15484E+00  0.21528E+00  0.00000E+00 -0.15974E+00  0.21331E+00  0.00000E+00 -0.17010E+00  0.21296E+00  0.00000E+00 -0.17218E+00
          0.48741E+00  0.00000E+00 -0.41558E-03  0.50682E+00  0.00000E+00 -0.10583E-01  0.51368E+00  0.00000E+00 -0.82329E-02  0.48457E+00  0.00000E+00 -0.19833E-01  0.48359E+00  0.00000E+00 -0.23256E-01  0.47290E+00  0.00000E+00 -0.23787E-01
          0.46840E+00  0.00000E+00 -0.35989E-01  0.45784E+00  0.00000E+00 -0.40084E-01  0.44165E+00  0.00000E+00 -0.49421E-01  0.42398E+00  0.00000E+00 -0.53156E-01  0.40534E+00  0.00000E+00 -0.64465E-01  0.37777E+00  0.00000E+00 -0.72613E-01
          0.34633E+00  0.00000E+00 -0.93777E-01  0.35379E+00  0.00000E+00 -0.76302E-01  0.27873E+00  0.00000E+00 -0.12758E+00  0.27004E+00  0.00000E+00 -0.10269E+00  0.27816E+00  0.00000E+00 -0.11075E+00  0.26518E+00  0.00000E+00 -0.11608E+00
          0.24307E+00  0.00000E+00 -0.11854E+00  0.25603E+00  0.00000E+00 -0.12021E+00  0.23392E+00  0.00000E+00 -0.12772E+00  0.24155E+00  0.00000E+00 -0.13095E+00  0.23652E+00  0.00000E+00 -0.13428E+00  0.23073E+00  0.00000E+00 -0.13790E+00
          0.23514E+00  0.00000E+00 -0.14351E+00  0.23350E+00  0.00000E+00 -0.14905E+00  0.22775E+00  0.00000E+00 -0.14825E+00  0.23409E+00  0.00000E+00 -0.15297E+00  0.23177E+00  0.00000E+00 -0.16340E+00  0.23151E+00  0.00000E+00 -0.16575E+00
          0.52249E+00  0.00000E+00 -0.57533E-03  0.54132E+00  0.00000E+00 -0.10405E-01  0.54213E+00  0.00000E+00 -0.76165E-02  0.51371E+00  0.00000E+00 -0.19575E-01  0.51312E+00  0.00000E+00 -0.23449E-01  0.50163E+00  0.00000E+00 -0.23757E-01
          0.49897E+00  0.00000E+00 -0.32708E-01  0.48971E+00  0.00000E+00 -0.38069E-01  0.47727E+00  0.00000E+00 -0.46343E-01  0.46326E+00  0.00000E+00 -0.50623E-01  0.44495E+00  0.00000E+00 -0.58790E-01  0.42565E+00  0.00000E+00 -0.74225E-01
          0.39881E+00  0.00000E+00 -0.73549E-01  0.36958E+00  0.00000E+00 -0.73411E-01  0.31538E+00  0.00000E+00 -0.11768E+00  0.27606E+00  0.00000E+00 -0.10279E+00  0.28858E+00  0.00000E+00 -0.10264E+00  0.27901E+00  0.00000E+00 -0.11202E+00
          0.25868E+00  0.00000E+00 -0.11323E+00  0.27739E+00  0.00000E+00 -0.11319E+00  0.25276E+00  0.00000E+00 -0.12189E+00  0.26243E+00  0.00000E+00 -0.12535E+00  0.25707E+00  0.00000E+00 -0.12795E+00  0.25037E+00  0.00000E+00 -0.13219E+00
          0.25557E+00  0.00000E+00 -0.13806E+00  0.25393E+00  0.00000E+00 -0.14332E+00  0.24683E+00  0.00000E+00 -0.14285E+00  0.25400E+00  0.00000E+00 -0.14743E+00  0.25124E+00  0.00000E+00 -0.15825E+00  0.25087E+00  0.00000E+00 -0.16084E+00
          0.56000E+00  0.00000E+00 -0.84483E-03  0.57704E+00  0.00000E+00 -0.97657E-02  0.57150E+00  0.00000E+00 -0.70224E-02  0.54311E+00  0.00000E+00 -0.19821E-01  0.54405E+00  0.00000E+00 -0.24652E-01  0.53041E+00  0.00000E+00 -0.24792E-01
          0.52824E+00  0.00000E+00 -0.32322E-01  0.51993E+00  0.00000E+00 -0.37364E-01  0.51013E+00  0.00000E+00 -0.44492E-01  0.49586E+00  0.00000E+00 -0.48657E-01  0.48078E+00  0.00000E+00 -0.53629E-01  0.45849E+00  0.00000E+00 -0.67643E-01
          0.43492E+00  0.00000E+00 -0.75498E-01  0.39719E+00  0.00000E+00 -0.68612E-01  0.37347E+00  0.00000E+00 -0.91184E-01  0.30296E+00  0.00000E+00 -0.11958E+00  0.29937E+00  0.00000E+00 -0.10234E+00  0.29333E+00  0.00000E+00 -0.11414E+00
          0.27271E+00  0.00000E+00 -0.11919E+00  0.29618E+00  0.00000E+00 -0.11645E+00  0.27262E+00  0.00000E+00 -0.12341E+00  0.28307E+00  0.00000E+00 -0.12827E+00  0.27836E+00  0.00000E+00 -0.13004E+00  0.27119E+00  0.00000E+00 -0.13411E+00
          0.27622E+00  0.00000E+00 -0.14033E+00  0.27451E+00  0.00000E+00 -0.14510E+00  0.26679E+00  0.00000E+00 -0.14475E+00  0.27378E+00  0.00000E+00 -0.14948E+00  0.27085E+00  0.00000E+00 -0.15981E+00  0.27031E+00  0.00000E+00 -0.16202E+00
          0.59802E+00  0.00000E+00 -0.73337E-03  0.61007E+00  0.00000E+00 -0.80304E-02  0.60624E+00  0.00000E+00 -0.54497E-02  0.57542E+00  0.00000E+00 -0.18587E-01  0.58101E+00  0.00000E+00 -0.26311E-01  0.56309E+00  0.00000E+00 -0.26521E-01
          0.55862E+00  0.00000E+00 -0.33130E-01  0.55113E+00  0.00000E+00 -0.39418E-01  0.54241E+00  0.00000E+00 -0.44933E-01  0.52878E+00  0.00000E+00 -0.49441E-01  0.51514E+00  0.00000E+00 -0.53024E-01  0.49332E+00  0.00000E+00 -0.62137E-01
          0.47469E+00  0.00000E+00 -0.71614E-01  0.43714E+00  0.00000E+00 -0.77786E-01  0.41250E+00  0.00000E+00 -0.77856E-01  0.37415E+00  0.00000E+00 -0.10643E+00  0.31456E+00  0.00000E+00 -0.11172E+00  0.30607E+00  0.00000E+00 -0.10824E+00
          0.28079E+00  0.00000E+00 -0.12046E+00  0.31456E+00  0.00000E+00 -0.12069E+00  0.28806E+00  0.00000E+00 -0.12291E+00  0.30246E+00  0.00000E+00 -0.12821E+00  0.29864E+00  0.00000E+00 -0.13091E+00  0.29047E+00  0.00000E+00 -0.13390E+00
          0.29622E+00  0.00000E+00 -0.13981E+00  0.29439E+00  0.00000E+00 -0.14469E+00  0.28530E+00  0.00000E+00 -0.14429E+00  0.29266E+00  0.00000E+00 -0.14865E+00  0.28931E+00  0.00000E+00 -0.15886E+00  0.28871E+00  0.00000E+00 -0.16114E+00
          0.62688E+00  0.00000E+00 -0.41602E-03  0.63485E+00  0.00000E+00 -0.60759E-02  0.64923E+00  0.00000E+00 -0.84443E-02  0.61043E+00  0.00000E+00 -0.11209E-01  0.63506E+00  0.00000E+00 -0.33947E-01  0.60561E+00  0.00000E+00 -0.27223E-01