<?xml version="1.0"?>
<VTKFile type="UnstructuredGrid" version="0.1" byte_order="LittleEndian" compressor="vtkZLibDataCompressor">
<UnstructuredGrid>
  <Piece NumberOfPoints="1800"        NumberOfCells="1"      >
    <Points>
      <DataArray type="Float32" NumberOfComponents="3" format="ascii" >
        0.20015E-01  0.00000E+00  0.24879E-02  0.95473E-02  0.00000E+00  0.55613E-02  0.70330E-02  0.00000E+00  0.12852E-01  0.85609E-02  0.00000E+00  0.19238E-01  0.81855E-02  0.00000E+00  0.25551E-01  0.76832E-02  0.00000E+00  0.32325E-01
        0.77452E-02  0.00000E+00  0.39189E-01  0.82798E-02  0.00000E+00  0.45537E-01  0.84654E-02  0.00000E+00  0.51581E-01  0.84297E-02  0.00000E+00  0.57496E-01  0.82492E-02  0.00000E+00  0.63481E-01  0.80816E-02  0.00000E+00  0.69532E-01
        0.79217E-02  0.00000E+00  0.75685E-01  0.77545E-02  0.00000E+00  0.81910E-01  0.75996E-02  0.00000E+00  0.88233E-01  0.74559E-02  0.00000E+00  0.94644E-01  0.73258E-02  0.00000E+00  0.10114E+00  0.72076E-02  0.00000E+00  0.10772E+00
        0.71011E-02  0.00000E+00  0.11439E+00  0.70054E-02  0.00000E+00  0.12113E+00  0.69161E-02  0.00000E+00  0.12794E+00  0.68368E-02  0.00000E+00  0.13483E+00  0.67637E-02  0.00000E+00  0.14178E+00  0.66800E-02  0.00000E+00  0.14880E+00
        0.66360E-02  0.00000E+00  0.15592E+00  0.65673E-02  0.00000E+00  0.16306E+00  0.64008E-02  0.00000E+00  0.17020E+00  0.67319E-02  0.00000E+00  0.17774E+00  0.61940E-02  0.00000E+00  0.18504E+00  0.59807E-02  0.00000E+00  0.19101E+00
        0.32841E-01  0.00000E+00  0.38430E-02  0.20615E-01  0.00000E+00  0.11105E-01  0.30560E-01  0.00000E+00  0.13466E-01  0.27580E-01  0.00000E+00  0.21487E-01  0.18698E-01  0.00000E+00  0.23440E-01  0.27381E-01  0.00000E+00  0.31012E-01
        0.19206E-01  0.00000E+00  0.35964E-01  0.26628E-01  0.00000E+00  0.41764E-01  0.21430E-01  0.00000E+00  0.48101E-01  0.24649E-01  0.00000E+00  0.54565E-01  0.23125E-01  0.00000E+00  0.61084E-01  0.23201E-01  0.00000E+00  0.67757E-01
        0.22802E-01  0.00000E+00  0.74396E-01  0.22555E-01  0.00000E+00  0.81059E-01  0.22277E-01  0.00000E+00  0.87746E-01  0.22024E-01  0.00000E+00  0.94448E-01  0.21777E-01  0.00000E+00  0.10117E+00  0.21544E-01  0.00000E+00  0.10793E+00
        0.21320E-01  0.00000E+00  0.11472E+00  0.21109E-01  0.00000E+00  0.12156E+00  0.20905E-01  0.00000E+00  0.12843E+00  0.20706E-01  0.00000E+00  0.13535E+00  0.20522E-01  0.00000E+00  0.14235E+00  0.20333E-01  0.00000E+00  0.14931E+00
        0.20139E-01  0.00000E+00  0.15644E+00  0.20044E-01  0.00000E+00  0.16366E+00  0.19690E-01  0.00000E+00  0.17042E+00  0.19888E-01  0.00000E+00  0.17832E+00  0.19372E-01  0.00000E+00  0.18544E+00  0.19423E-01  0.00000E+00  0.19118E+00
        0.49500E-01  0.00000E+00  0.35284E-02  0.40894E-01  0.00000E+00  0.10156E-01  0.51695E-01  0.00000E+00  0.13611E-01  0.45511E-01  0.00000E+00  0.20293E-01  0.37509E-01  0.00000E+00  0.24626E-01  0.45989E-01  0.00000E+00  0.30676E-01
        0.36470E-01  0.00000E+00  0.35838E-01  0.44009E-01  0.00000E+00  0.42064E-01  0.36493E-01  0.00000E+00  0.47516E-01  0.40055E-01  0.00000E+00  0.54193E-01  0.37594E-01  0.00000E+00  0.60728E-01  0.37965E-01  0.00000E+00  0.67611E-01
        0.37457E-01  0.00000E+00  0.74427E-01  0.37196E-01  0.00000E+00  0.81255E-01  0.36897E-01  0.00000E+00  0.88104E-01  0.36618E-01  0.00000E+00  0.94950E-01  0.36325E-01  0.00000E+00  0.10181E+00  0.36042E-01  0.00000E+00  0.10869E+00
        0.35754E-01  0.00000E+00  0.11558E+00  0.35471E-01  0.00000E+00  0.12251E+00  0.35189E-01  0.00000E+00  0.12944E+00  0.34910E-01  0.00000E+00  0.13641E+00  0.34629E-01  0.00000E+00  0.14345E+00  0.34365E-01  0.00000E+00  0.15040E+00
        0.34089E-01  0.00000E+00  0.15755E+00  0.33849E-01  0.00000E+00  0.16477E+00  0.33595E-01  0.00000E+00  0.17141E+00  0.33434E-01  0.00000E+00  0.17936E+00  0.33092E-01  0.00000E+00  0.18628E+00  0.32998E-01  0.00000E+00  0.19195E+00
        0.71706E-01  0.00000E+00  0.33010E-02  0.60721E-01  0.00000E+00  0.78880E-02  0.66429E-01  0.00000E+00  0.14487E-01  0.66348E-01  0.00000E+00  0.22781E-01  0.55683E-01  0.00000E+00  0.23760E-01  0.63224E-01  0.00000E+00  0.31534E-01
        0.54165E-01  0.00000E+00  0.35521E-01  0.60244E-01  0.00000E+00  0.42834E-01  0.52745E-01  0.00000E+00  0.47886E-01  0.54752E-01  0.00000E+00  0.55011E-01  0.52502E-01  0.00000E+00  0.61483E-01  0.52560E-01  0.00000E+00  0.68285E-01
        0.52047E-01  0.00000E+00  0.75099E-01  0.51776E-01  0.00000E+00  0.81923E-01  0.51448E-01  0.00000E+00  0.88768E-01  0.51144E-01  0.00000E+00  0.95629E-01  0.50824E-01  0.00000E+00  0.10251E+00  0.50509E-01  0.00000E+00  0.10940E+00
        0.50187E-01  0.00000E+00  0.11631E+00  0.49866E-01  0.00000E+00  0.12324E+00  0.49541E-01  0.00000E+00  0.13017E+00  0.49223E-01  0.00000E+00  0.13714E+00  0.48896E-01  0.00000E+00  0.14416E+00  0.48588E-01  0.00000E+00  0.15108E+00
        0.48275E-01  0.00000E+00  0.15818E+00  0.47974E-01  0.00000E+00  0.16533E+00  0.47744E-01  0.00000E+00  0.17190E+00  0.47431E-01  0.00000E+00  0.17981E+00  0.47376E-01  0.00000E+00  0.18653E+00  0.47151E-01  0.00000E+00  0.19211E+00
        0.89911E-01  0.00000E+00  0.36588E-02  0.81428E-01  0.00000E+00  0.87703E-02  0.77634E-01  0.00000E+00  0.16328E-01  0.85560E-01  0.00000E+00  0.22669E-01  0.76033E-01  0.00000E+00  0.26708E-01  0.82825E-01  0.00000E+00  0.33835E-01
        0.72060E-01  0.00000E+00  0.36425E-01  0.75719E-01  0.00000E+00  0.43989E-01  0.68732E-01  0.00000E+00  0.48993E-01  0.69366E-01  0.00000E+00  0.56148E-01  0.67512E-01  0.00000E+00  0.62557E-01  0.67326E-01  0.00000E+00  0.69264E-01
        0.66813E-01  0.00000E+00  0.75993E-01  0.66479E-01  0.00000E+00  0.82715E-01  0.66114E-01  0.00000E+00  0.89482E-01  0.65768E-01  0.00000E+00  0.96269E-01  0.65408E-01  0.00000E+00  0.10308E+00  0.65051E-01  0.00000E+00  0.10991E+00
        0.64688E-01  0.00000E+00  0.11677E+00  0.64326E-01  0.00000E+00  0.12366E+00  0.63960E-01  0.00000E+00  0.13055E+00  0.63599E-01  0.00000E+00  0.13748E+00  0.63233E-01  0.00000E+00  0.14447E+00  0.62881E-01  0.00000E+00  0.15134E+00
        0.62529E-01  0.00000E+00  0.15841E+00  0.62205E-01  0.00000E+00  0.16552E+00  0.61893E-01  0.00000E+00  0.17203E+00  0.61627E-01  0.00000E+00  0.17991E+00  0.61385E-01  0.00000E+00  0.18656E+00  0.61274E-01  0.00000E+00  0.19212E+00
        0.10499E+00  0.00000E+00  0.40582E-02  0.98476E-01  0.00000E+00  0.10661E-01  0.92775E-01  0.00000E+00  0.16698E-01  0.10461E+00  0.00000E+00  0.21621E-01  0.95756E-01  0.00000E+00  0.26077E-01  0.10077E+00  0.00000E+00  0.33532E-01
        0.91436E-01  0.00000E+00  0.36693E-01  0.90488E-01  0.00000E+00  0.44636E-01  0.84775E-01  0.00000E+00  0.50007E-01  0.84085E-01  0.00000E+00  0.57032E-01  0.82768E-01  0.00000E+00  0.63420E-01  0.82257E-01  0.00000E+00  0.70027E-01
        0.81766E-01  0.00000E+00  0.76698E-01  0.81364E-01  0.00000E+00  0.83339E-01  0.80944E-01  0.00000E+00  0.90032E-01  0.80536E-01  0.00000E+00  0.96752E-01  0.80118E-01  0.00000E+00  0.10350E+00  0.79702E-01  0.00000E+00  0.11027E+00
        0.79281E-01  0.00000E+00  0.11708E+00  0.78866E-01  0.00000E+00  0.12392E+00  0.78447E-01  0.00000E+00  0.13076E+00  0.78040E-01  0.00000E+00  0.13766E+00  0.77634E-01  0.00000E+00  0.14460E+00  0.77241E-01  0.00000E+00  0.15143E+00
        0.76866E-01  0.00000E+00  0.15847E+00  0.76508E-01  0.00000E+00  0.16552E+00  0.76193E-01  0.00000E+00  0.17198E+00  0.75914E-01  0.00000E+00  0.17986E+00  0.75759E-01  0.00000E+00  0.18640E+00  0.75572E-01  0.00000E+00  0.19189E+00
        0.11628E+00  0.00000E+00  0.42113E-02  0.12278E+00  0.00000E+00  0.11505E-01  0.11091E+00  0.00000E+00  0.14070E-01  0.12315E+00  0.00000E+00  0.20955E-01  0.11406E+00  0.00000E+00  0.23770E-01  0.11538E+00  0.00000E+00  0.31976E-01
        0.10940E+00  0.00000E+00  0.37861E-01  0.10527E+00  0.00000E+00  0.44835E-01  0.10090E+00  0.00000E+00  0.50692E-01  0.99170E-01  0.00000E+00  0.57264E-01  0.98147E-01  0.00000E+00  0.63731E-01  0.97405E-01  0.00000E+00  0.70272E-01
        0.96915E-01  0.00000E+00  0.76890E-01  0.96427E-01  0.00000E+00  0.83497E-01  0.95946E-01  0.00000E+00  0.90155E-01  0.95471E-01  0.00000E+00  0.96841E-01  0.94986E-01  0.00000E+00  0.10356E+00  0.94505E-01  0.00000E+00  0.11030E+00
        0.94022E-01  0.00000E+00  0.11707E+00  0.93548E-01  0.00000E+00  0.12388E+00  0.93075E-01  0.00000E+00  0.13069E+00  0.92619E-01  0.00000E+00  0.13756E+00  0.92169E-01  0.00000E+00  0.14446E+00  0.91738E-01  0.00000E+00  0.15125E+00
        0.91329E-01  0.00000E+00  0.15827E+00  0.90949E-01  0.00000E+00  0.16528E+00  0.90597E-01  0.00000E+00  0.17169E+00  0.90316E-01  0.00000E+00  0.17956E+00  0.90054E-01  0.00000E+00  0.18605E+00  0.89877E-01  0.00000E+00  0.19154E+00
        0.12963E+00  0.00000E+00  0.38365E-02  0.13782E+00  0.00000E+00  0.11079E-01  0.13293E+00  0.00000E+00  0.18050E-01  0.14565E+00  0.00000E+00  0.20531E-01  0.13647E+00  0.00000E+00  0.26720E-01  0.12834E+00  0.00000E+00  0.30466E-01
        0.12592E+00  0.00000E+00  0.38132E-01  0.12062E+00  0.00000E+00  0.44230E-01  0.11744E+00  0.00000E+00  0.50797E-01  0.11482E+00  0.00000E+00  0.56977E-01  0.11358E+00  0.00000E+00  0.63430E-01  0.11271E+00  0.00000E+00  0.69962E-01
        0.11212E+00  0.00000E+00  0.76555E-01  0.11155E+00  0.00000E+00  0.83177E-01  0.11099E+00  0.00000E+00  0.89837E-01  0.11044E+00  0.00000E+00  0.96524E-01  0.10989E+00  0.00000E+00  0.10324E+00  0.10934E+00  0.00000E+00  0.10998E+00
        0.10879E+00  0.00000E+00  0.11675E+00  0.10826E+00  0.00000E+00  0.12355E+00  0.10774E+00  0.00000E+00  0.13035E+00  0.10723E+00  0.00000E+00  0.13720E+00  0.10674E+00  0.00000E+00  0.14409E+00  0.10627E+00  0.00000E+00  0.15087E+00
        0.10583E+00  0.00000E+00  0.15787E+00  0.10542E+00  0.00000E+00  0.16486E+00  0.10504E+00  0.00000E+00  0.17124E+00  0.10475E+00  0.00000E+00  0.17912E+00  0.10450E+00  0.00000E+00  0.18556E+00  0.10428E+00  0.00000E+00  0.19101E+00
[...]
<PointData>
      <DataArray type="Float32" Name="Velocity vectors"  NumberOfComponents="3"  format="ascii" >
          0.95098E-01  0.00000E+00 -0.86260E-03  0.54984E-01  0.00000E+00 -0.37877E-01 -0.71970E-02  0.00000E+00 -0.53113E-01  0.59199E-02  0.00000E+00 -0.45428E-01 -0.24607E-02  0.00000E+00 -0.48213E-01 -0.20735E-02  0.00000E+00 -0.48829E-01
         -0.38562E-03  0.00000E+00 -0.46188E-01  0.68549E-02  0.00000E+00 -0.45011E-01  0.10157E-01  0.00000E+00 -0.45055E-01  0.14156E-01  0.00000E+00 -0.52003E-01  0.15868E-01  0.00000E+00 -0.61627E-01  0.16908E-01  0.00000E+00 -0.71290E-01
          0.16319E-01  0.00000E+00 -0.81234E-01  0.15788E-01  0.00000E+00 -0.92314E-01  0.15021E-01  0.00000E+00 -0.10342E+00  0.13930E-01  0.00000E+00 -0.11449E+00  0.12836E-01  0.00000E+00 -0.12557E+00  0.11742E-01  0.00000E+00 -0.13648E+00
          0.10720E-01  0.00000E+00 -0.14709E+00  0.97869E-02  0.00000E+00 -0.15746E+00  0.89588E-02  0.00000E+00 -0.16751E+00  0.83159E-02  0.00000E+00 -0.17720E+00  0.76574E-02  0.00000E+00 -0.18677E+00  0.70654E-02  0.00000E+00 -0.19598E+00
          0.69901E-02  0.00000E+00 -0.20458E+00  0.59370E-02  0.00000E+00 -0.21378E+00  0.55634E-02  0.00000E+00 -0.22222E+00  0.82008E-02  0.00000E+00 -0.22816E+00  0.29354E-02  0.00000E+00 -0.23806E+00  0.49784E-02  0.00000E+00 -0.25109E+00
          0.79544E-01  0.00000E+00 -0.15177E-02  0.28111E-01  0.00000E+00  0.29605E-02  0.63058E-01  0.00000E+00 -0.18569E-01  0.16416E-01  0.00000E+00 -0.26680E-01  0.64529E-02  0.00000E+00 -0.49355E-01  0.17234E-01  0.00000E+00 -0.39712E-01
         -0.82140E-02  0.00000E+00 -0.61214E-01  0.41119E-01  0.00000E+00 -0.71665E-01 -0.20672E-01  0.00000E+00 -0.81701E-01  0.60301E-01  0.00000E+00 -0.95026E-01  0.20852E-01  0.00000E+00 -0.10291E+00  0.36996E-01  0.00000E+00 -0.10901E+00
          0.32406E-01  0.00000E+00 -0.11420E+00  0.33717E-01  0.00000E+00 -0.12045E+00  0.32524E-01  0.00000E+00 -0.12651E+00  0.31723E-01  0.00000E+00 -0.13283E+00  0.30636E-01  0.00000E+00 -0.13984E+00  0.29514E-01  0.00000E+00 -0.14714E+00
          0.28313E-01  0.00000E+00 -0.15473E+00  0.27165E-01  0.00000E+00 -0.16276E+00  0.25998E-01  0.00000E+00 -0.17109E+00  0.24938E-01  0.00000E+00 -0.17923E+00  0.23954E-01  0.00000E+00 -0.18784E+00  0.22786E-01  0.00000E+00 -0.19703E+00
          0.21822E-01  0.00000E+00 -0.20431E+00  0.21175E-01  0.00000E+00 -0.21351E+00  0.18847E-01  0.00000E+00 -0.22436E+00  0.20839E-01  0.00000E+00 -0.22652E+00  0.16974E-01  0.00000E+00 -0.23973E+00  0.19094E-01  0.00000E+00 -0.25076E+00
          0.84142E-01  0.00000E+00 -0.19761E-02  0.80721E-01  0.00000E+00 -0.10717E-02  0.11221E+00  0.00000E+00 -0.10733E-01  0.56936E-01  0.00000E+00 -0.32744E-01  0.37760E-01  0.00000E+00 -0.40370E-01  0.57120E-01  0.00000E+00 -0.55645E-01
          0.37856E-01  0.00000E+00 -0.68475E-01  0.73681E-01  0.00000E+00 -0.75422E-01  0.94434E-02  0.00000E+00 -0.91343E-01  0.87223E-01  0.00000E+00 -0.10437E+00  0.28314E-01  0.00000E+00 -0.11711E+00  0.52209E-01  0.00000E+00 -0.12088E+00
          0.43311E-01  0.00000E+00 -0.12722E+00  0.44877E-01  0.00000E+00 -0.13260E+00  0.44381E-01  0.00000E+00 -0.13774E+00  0.44401E-01  0.00000E+00 -0.14318E+00  0.43988E-01  0.00000E+00 -0.14901E+00  0.43654E-01  0.00000E+00 -0.15508E+00
          0.43093E-01  0.00000E+00 -0.16140E+00  0.42481E-01  0.00000E+00 -0.16816E+00  0.41725E-01  0.00000E+00 -0.17537E+00  0.40873E-01  0.00000E+00 -0.18233E+00  0.39856E-01  0.00000E+00 -0.18997E+00  0.38881E-01  0.00000E+00 -0.19846E+00
          0.37637E-01  0.00000E+00 -0.20469E+00  0.36621E-01  0.00000E+00 -0.21370E+00  0.35529E-01  0.00000E+00 -0.22420E+00  0.35123E-01  0.00000E+00 -0.22601E+00  0.32628E-01  0.00000E+00 -0.24066E+00  0.33436E-01  0.00000E+00 -0.25081E+00
          0.13183E+00  0.00000E+00 -0.35097E-02  0.97038E-01  0.00000E+00 -0.17527E-01  0.13250E+00  0.00000E+00 -0.32165E-01  0.93769E-01  0.00000E+00 -0.22410E-01  0.85810E-01  0.00000E+00 -0.44352E-01  0.87714E-01  0.00000E+00 -0.44018E-01
          0.63845E-01  0.00000E+00 -0.67785E-01  0.11775E+00  0.00000E+00 -0.68875E-01  0.47198E-01  0.00000E+00 -0.99254E-01  0.10404E+00  0.00000E+00 -0.99548E-01  0.45918E-01  0.00000E+00 -0.11371E+00  0.62572E-01  0.00000E+00 -0.11887E+00
          0.54415E-01  0.00000E+00 -0.12544E+00  0.56083E-01  0.00000E+00 -0.13102E+00  0.55338E-01  0.00000E+00 -0.13707E+00  0.55635E-01  0.00000E+00 -0.14296E+00  0.55611E-01  0.00000E+00 -0.14903E+00  0.55728E-01  0.00000E+00 -0.15531E+00
          0.55647E-01  0.00000E+00 -0.16165E+00  0.55536E-01  0.00000E+00 -0.16832E+00  0.55232E-01  0.00000E+00 -0.17538E+00  0.54881E-01  0.00000E+00 -0.18211E+00  0.54283E-01  0.00000E+00 -0.18961E+00  0.53727E-01  0.00000E+00 -0.19798E+00
          0.52926E-01  0.00000E+00 -0.20404E+00  0.52153E-01  0.00000E+00 -0.21324E+00  0.51783E-01  0.00000E+00 -0.22360E+00  0.50683E-01  0.00000E+00 -0.22508E+00  0.51556E-01  0.00000E+00 -0.24006E+00  0.50906E-01  0.00000E+00 -0.25071E+00
          0.17330E+00  0.00000E+00 -0.61054E-03  0.15608E+00  0.00000E+00 -0.13330E-01  0.10904E+00  0.00000E+00 -0.21322E-01  0.12778E+00  0.00000E+00 -0.23416E-01  0.11374E+00  0.00000E+00 -0.34437E-01  0.13909E+00  0.00000E+00 -0.48780E-01
          0.10490E+00  0.00000E+00 -0.67169E-01  0.15681E+00  0.00000E+00 -0.65051E-01  0.78386E-01  0.00000E+00 -0.99318E-01  0.10924E+00  0.00000E+00 -0.94029E-01  0.65190E-01  0.00000E+00 -0.10619E+00  0.73948E-01  0.00000E+00 -0.11133E+00
          0.67257E-01  0.00000E+00 -0.11793E+00  0.68264E-01  0.00000E+00 -0.12408E+00  0.67965E-01  0.00000E+00 -0.13078E+00  0.68521E-01  0.00000E+00 -0.13735E+00  0.68842E-01  0.00000E+00 -0.14422E+00  0.69300E-01  0.00000E+00 -0.15136E+00
          0.69620E-01  0.00000E+00 -0.15845E+00  0.69936E-01  0.00000E+00 -0.16586E+00  0.70064E-01  0.00000E+00 -0.17362E+00  0.70145E-01  0.00000E+00 -0.18092E+00  0.70014E-01  0.00000E+00 -0.18897E+00  0.69801E-01  0.00000E+00 -0.19778E+00
          0.69452E-01  0.00000E+00 -0.20409E+00  0.69039E-01  0.00000E+00 -0.21372E+00  0.68503E-01  0.00000E+00 -0.22416E+00  0.68195E-01  0.00000E+00 -0.22588E+00  0.67036E-01  0.00000E+00 -0.24135E+00  0.67598E-01  0.00000E+00 -0.25139E+00
          0.19022E+00  0.00000E+00 -0.44557E-02  0.18139E+00  0.00000E+00 -0.65959E-02  0.12052E+00  0.00000E+00 -0.40498E-01  0.15961E+00  0.00000E+00 -0.31752E-01  0.14716E+00  0.00000E+00 -0.48800E-01  0.19075E+00  0.00000E+00 -0.62832E-01
          0.16195E+00  0.00000E+00 -0.88833E-01  0.17020E+00  0.00000E+00 -0.72728E-01  0.10605E+00  0.00000E+00 -0.10045E+00  0.10960E+00  0.00000E+00 -0.90505E-01  0.83873E-01  0.00000E+00 -0.99015E-01  0.83795E-01  0.00000E+00 -0.10570E+00
          0.81488E-01  0.00000E+00 -0.11102E+00  0.82288E-01  0.00000E+00 -0.11744E+00  0.82652E-01  0.00000E+00 -0.12468E+00  0.83563E-01  0.00000E+00 -0.13163E+00  0.84252E-01  0.00000E+00 -0.13904E+00  0.85008E-01  0.00000E+00 -0.14682E+00
          0.85579E-01  0.00000E+00 -0.15452E+00  0.86127E-01  0.00000E+00 -0.16258E+00  0.86401E-01  0.00000E+00 -0.17095E+00  0.86697E-01  0.00000E+00 -0.17875E+00  0.86718E-01  0.00000E+00 -0.18737E+00  0.86583E-01  0.00000E+00 -0.19659E+00
          0.86527E-01  0.00000E+00 -0.20310E+00  0.86118E-01  0.00000E+00 -0.21325E+00  0.85857E-01  0.00000E+00 -0.22382E+00  0.85790E-01  0.00000E+00 -0.22531E+00  0.85824E-01  0.00000E+00 -0.24148E+00  0.85918E-01  0.00000E+00 -0.25191E+00
          0.21653E+00  0.00000E+00 -0.76496E-02  0.22364E+00  0.00000E+00 -0.14195E-01  0.18572E+00  0.00000E+00 -0.30015E-01  0.20529E+00  0.00000E+00 -0.27875E-01  0.17155E+00  0.00000E+00 -0.58617E-01  0.21306E+00  0.00000E+00 -0.59976E-01
          0.19038E+00  0.00000E+00 -0.73489E-01  0.16884E+00  0.00000E+00 -0.75238E-01  0.12256E+00  0.00000E+00 -0.93511E-01  0.10906E+00  0.00000E+00 -0.88789E-01  0.99914E-01  0.00000E+00 -0.94689E-01  0.94667E-01  0.00000E+00 -0.10168E+00
          0.96197E-01  0.00000E+00 -0.10699E+00  0.96904E-01  0.00000E+00 -0.11408E+00  0.98254E-01  0.00000E+00 -0.12154E+00  0.99736E-01  0.00000E+00 -0.12885E+00  0.10092E+00  0.00000E+00 -0.13675E+00  0.10204E+00  0.00000E+00 -0.14488E+00
          0.10291E+00  0.00000E+00 -0.15294E+00  0.10370E+00  0.00000E+00 -0.16136E+00  0.10417E+00  0.00000E+00 -0.17006E+00  0.10461E+00  0.00000E+00 -0.17812E+00  0.10478E+00  0.00000E+00 -0.18706E+00  0.10479E+00  0.00000E+00 -0.19654E+00
          0.10481E+00  0.00000E+00 -0.20320E+00  0.10459E+00  0.00000E+00 -0.21369E+00  0.10428E+00  0.00000E+00 -0.22440E+00  0.10435E+00  0.00000E+00 -0.22602E+00  0.10339E+00  0.00000E+00 -0.24239E+00  0.10383E+00  0.00000E+00 -0.25263E+00
          0.23964E+00  0.00000E+00 -0.38070E-02  0.24571E+00  0.00000E+00 -0.13319E-01  0.21977E+00  0.00000E+00 -0.26706E-01  0.26170E+00  0.00000E+00 -0.36709E-01  0.25291E+00  0.00000E+00 -0.40408E-01  0.21273E+00  0.00000E+00 -0.76877E-01
          0.21256E+00  0.00000E+00 -0.59144E-01  0.17478E+00  0.00000E+00 -0.75638E-01  0.15263E+00  0.00000E+00 -0.81559E-01  0.11816E+00  0.00000E+00 -0.91201E-01  0.11280E+00  0.00000E+00 -0.95985E-01  0.10936E+00  0.00000E+00 -0.10325E+00
          0.11206E+00  0.00000E+00 -0.10888E+00  0.11357E+00  0.00000E+00 -0.11575E+00  0.11560E+00  0.00000E+00 -0.12313E+00  0.11747E+00  0.00000E+00 -0.13045E+00  0.11898E+00  0.00000E+00 -0.13828E+00  0.12029E+00  0.00000E+00 -0.14631E+00
          0.12129E+00  0.00000E+00 -0.15433E+00  0.12216E+00  0.00000E+00 -0.16269E+00  0.12266E+00  0.00000E+00 -0.17132E+00  0.12317E+00  0.00000E+00 -0.17933E+00  0.12337E+00  0.00000E+00 -0.18828E+00  0.12335E+00  0.00000E+00 -0.19771E+00
          0.12350E+00  0.00000E+00 -0.20430E+00  0.12317E+00  0.00000E+00 -0.21491E+00  0.12283E+00  0.00000E+00 -0.22545E+00  0.12304E+00  0.00000E+00 -0.22693E+00  0.12223E+00  0.00000E+00 -0.24358E+00  0.12255E+00  0.00000E+00 -0.25381E+00
          0.25667E+00  0.00000E+00 -0.40761E-02  0.26224E+00  0.00000E+00 -0.65436E-02  0.28334E+00  0.00000E+00 -0.24132E-01  0.29024E+00  0.00000E+00 -0.28016E-01  0.27318E+00  0.00000E+00 -0.40098E-01  0.24537E+00  0.00000E+00 -0.65280E-01
          0.22676E+00  0.00000E+00 -0.53910E-01  0.18377E+00  0.00000E+00 -0.94160E-01  0.18946E+00  0.00000E+00 -0.80068E-01  0.13590E+00  0.00000E+00 -0.99882E-01  0.12975E+00  0.00000E+00 -0.10364E+00  0.12480E+00  0.00000E+00 -0.11043E+00
          0.12618E+00  0.00000E+00 -0.11640E+00  0.12866E+00  0.00000E+00 -0.12214E+00  0.13129E+00  0.00000E+00 -0.12837E+00  0.13368E+00  0.00000E+00 -0.13501E+00  0.13567E+00  0.00000E+00 -0.14204E+00  0.13737E+00  0.00000E+00 -0.14942E+00
          0.13872E+00  0.00000E+00 -0.15695E+00  0.13990E+00  0.00000E+00 -0.16493E+00  0.14065E+00  0.00000E+00 -0.17327E+00  0.14140E+00  0.00000E+00 -0.18106E+00  0.14178E+00  0.00000E+00 -0.18993E+00  0.14191E+00  0.00000E+00 -0.19924E+00
          0.14218E+00  0.00000E+00 -0.20574E+00  0.14197E+00  0.00000E+00 -0.21643E+00  0.14161E+00  0.00000E+00 -0.22687E+00  0.14187E+00  0.00000E+00 -0.22835E+00  0.14061E+00  0.00000E+00 -0.24502E+00  0.14107E+00  0.00000E+00 -0.25513E+00
          0.27006E+00  0.00000E+00 -0.34158E-02  0.29350E+00  0.00000E+00 -0.15867E-01  0.31275E+00  0.00000E+00 -0.22862E-01  0.29031E+00  0.00000E+00 -0.33081E-01  0.31886E+00  0.00000E+00 -0.40665E-01  0.29469E+00  0.00000E+00 -0.54506E-01
          0.25801E+00  0.00000E+00 -0.58536E-01  0.22042E+00  0.00000E+00 -0.95507E-01  0.20899E+00  0.00000E+00 -0.84057E-01  0.15904E+00  0.00000E+00 -0.10039E+00  0.14314E+00  0.00000E+00 -0.10494E+00  0.14105E+00  0.00000E+00 -0.11082E+00
          0.13907E+00  0.00000E+00 -0.11837E+00  0.14235E+00  0.00000E+00 -0.12460E+00  0.14566E+00  0.00000E+00 -0.13099E+00  0.14889E+00  0.00000E+00 -0.13792E+00  0.15170E+00  0.00000E+00 -0.14506E+00  0.15413E+00  0.00000E+00 -0.15248E+00
          0.15608E+00  0.00000E+00 -0.16006E+00  0.15776E+00  0.00000E+00 -0.16803E+00  0.15890E+00  0.00000E+00 -0.17630E+00  0.15993E+00  0.00000E+00 -0.18402E+00  0.16055E+00  0.00000E+00 -0.19280E+00  0.16082E+00  0.00000E+00 -0.20196E+00
          0.16118E+00  0.00000E+00 -0.20835E+00  0.16100E+00  0.00000E+00 -0.21896E+00  0.16056E+00  0.00000E+00 -0.22912E+00  0.16081E+00  0.00000E+00 -0.23056E+00  0.15939E+00  0.00000E+00 -0.24719E+00  0.15978E+00  0.00000E+00 -0.25710E+00
          0.30621E+00  0.00000E+00 -0.26240E-02  0.32662E+00  0.00000E+00 -0.16544E-01  0.33181E+00  0.00000E+00 -0.17904E-01  0.30802E+00  0.00000E+00 -0.26766E-01  0.35132E+00  0.00000E+00 -0.45228E-01  0.33172E+00  0.00000E+00 -0.52579E-01
          0.30010E+00  0.00000E+00 -0.55361E-01  0.26608E+00  0.00000E+00 -0.84326E-01  0.23465E+00  0.00000E+00 -0.84159E-01  0.18431E+00  0.00000E+00 -0.10232E+00  0.16384E+00  0.00000E+00 -0.10874E+00  0.15999E+00  0.00000E+00 -0.11583E+00
          0.15613E+00  0.00000E+00 -0.12370E+00  0.15859E+00  0.00000E+00 -0.13047E+00  0.16191E+00  0.00000E+00 -0.13718E+00  0.16530E+00  0.00000E+00 -0.14418E+00  0.16843E+00  0.00000E+00 -0.15122E+00  0.17116E+00  0.00000E+00 -0.15843E+00
          0.17337E+00  0.00000E+00 -0.16571E+00  0.17528E+00  0.00000E+00 -0.17331E+00  0.17661E+00  0.00000E+00 -0.18117E+00  0.17784E+00  0.00000E+00 -0.18849E+00  0.17860E+00  0.00000E+00 -0.19689E+00  0.17899E+00  0.00000E+00 -0.20561E+00
          0.17952E+00  0.00000E+00 -0.21169E+00  0.17939E+00  0.00000E+00 -0.22207E+00  0.17899E+00  0.00000E+00 -0.23176E+00  0.17939E+00  0.00000E+00 -0.23318E+00  0.17776E+00  0.00000E+00 -0.24956E+00  0.17823E+00  0.00000E+00 -0.25915E+00
          0.33968E+00  0.00000E+00 -0.14517E-02  0.35090E+00  0.00000E+00 -0.13492E-01  0.36349E+00  0.00000E+00 -0.20799E-01  0.34409E+00  0.00000E+00 -0.28684E-01  0.38445E+00  0.00000E+00 -0.46808E-01  0.36744E+00  0.00000E+00 -0.49359E-01
          0.33080E+00  0.00000E+00 -0.60442E-01  0.30703E+00  0.00000E+00 -0.78706E-01  0.27248E+00  0.00000E+00 -0.77970E-01  0.21743E+00  0.00000E+00 -0.10136E+00  0.18690E+00  0.00000E+00 -0.11222E+00  0.17949E+00  0.00000E+00 -0.11881E+00
          0.17274E+00  0.00000E+00 -0.12767E+00  0.17416E+00  0.00000E+00 -0.13407E+00  0.17703E+00  0.00000E+00 -0.14068E+00  0.18040E+00  0.00000E+00 -0.14763E+00  0.18371E+00  0.00000E+00 -0.15451E+00  0.18674E+00  0.00000E+00 -0.16159E+00
          0.18930E+00  0.00000E+00 -0.16875E+00  0.19158E+00  0.00000E+00 -0.17624E+00  0.19327E+00  0.00000E+00 -0.18399E+00  0.19486E+00  0.00000E+00 -0.19122E+00  0.19598E+00  0.00000E+00 -0.19956E+00  0.19666E+00  0.00000E+00 -0.20814E+00
          0.19745E+00  0.00000E+00 -0.21415E+00  0.19757E+00  0.00000E+00 -0.22449E+00  0.19722E+00  0.00000E+00 -0.23395E+00  0.19779E+00  0.00000E+00 -0.23538E+00  0.19608E+00  0.00000E+00 -0.25165E+00  0.19659E+00  0.00000E+00 -0.26109E+00
          0.36392E+00  0.00000E+00 -0.18172E-02  0.38061E+00  0.00000E+00 -0.15754E-01  0.39437E+00  0.00000E+00 -0.22011E-01  0.37520E+00  0.00000E+00 -0.28638E-01  0.41625E+00  0.00000E+00 -0.48002E-01  0.40061E+00  0.00000E+00 -0.47433E-01
          0.36306E+00  0.00000E+00 -0.61078E-01  0.33992E+00  0.00000E+00 -0.76963E-01  0.30547E+00  0.00000E+00 -0.79369E-01  0.25859E+00  0.00000E+00 -0.96235E-01  0.21910E+00  0.00000E+00 -0.11024E+00  0.20192E+00  0.00000E+00 -0.11869E+00
          0.19079E+00  0.00000E+00 -0.12951E+00  0.19053E+00  0.00000E+00 -0.13658E+00  0.19297E+00  0.00000E+00 -0.14328E+00  0.19624E+00  0.00000E+00 -0.15049E+00  0.19974E+00  0.00000E+00 -0.15752E+00  0.20304E+00  0.00000E+00 -0.16465E+00
          0.20588E+00  0.00000E+00 -0.17188E+00  0.20846E+00  0.00000E+00 -0.17938E+00  0.21040E+00  0.00000E+00 -0.18709E+00  0.21223E+00  0.00000E+00 -0.19425E+00  0.21355E+00  0.00000E+00 -0.20251E+00  0.21439E+00  0.00000E+00 -0.21091E+00
          0.21536E+00  0.00000E+00 -0.21681E+00  0.21558E+00  0.00000E+00 -0.22707E+00  0.21528E+00  0.00000E+00 -0.23615E+00  0.21605E+00  0.00000E+00 -0.23765E+00  0.21422E+00  0.00000E+00 -0.25373E+00  0.21477E+00  0.00000E+00 -0.26283E+00
          0.39536E+00  0.00000E+00 -0.18399E-02  0.41347E+00  0.00000E+00 -0.16511E-01  0.42689E+00  0.00000E+00 -0.22586E-01  0.40625E+00  0.00000E+00 -0.28919E-01  0.44794E+00  0.00000E+00 -0.48774E-01  0.43182E+00  0.00000E+00 -0.47426E-01
          0.39556E+00  0.00000E+00 -0.62591E-01  0.37345E+00  0.00000E+00 -0.75027E-01  0.33740E+00  0.00000E+00 -0.79818E-01  0.29417E+00  0.00000E+00 -0.95125E-01  0.25553E+00  0.00000E+00 -0.10819E+00  0.23124E+00  0.00000E+00 -0.11722E+00
          0.21315E+00  0.00000E+00 -0.12948E+00  0.20911E+00  0.00000E+00 -0.13801E+00  0.20991E+00  0.00000E+00 -0.14541E+00  0.21245E+00  0.00000E+00 -0.15264E+00  0.21577E+00  0.00000E+00 -0.15974E+00  0.21909E+00  0.00000E+00 -0.16681E+00
          0.22204E+00  0.00000E+00 -0.17392E+00  0.22479E+00  0.00000E+00 -0.18132E+00  0.22692E+00  0.00000E+00 -0.18889E+00  0.22898E+00  0.00000E+00 -0.19592E+00  0.23054E+00  0.00000E+00 -0.20412E+00  0.23159E+00  0.00000E+00 -0.21237E+00
          0.23281E+00  0.00000E+00 -0.21818E+00  0.23327E+00  0.00000E+00 -0.22847E+00  0.23305E+00  0.00000E+00 -0.23733E+00  0.23407E+00  0.00000E+00 -0.23884E+00  0.23220E+00  0.00000E+00 -0.25488E+00  0.23285E+00  0.00000E+00 -0.26388E+00
          0.42945E+00  0.00000E+00 -0.17890E-02  0.44901E+00  0.00000E+00 -0.17591E-01  0.46116E+00  0.00000E+00 -0.22651E-01  0.43787E+00  0.00000E+00 -0.29515E-01  0.47922E+00  0.00000E+00 -0.49189E-01  0.46165E+00  0.00000E+00 -0.47844E-01
          0.42699E+00  0.00000E+00 -0.63341E-01  0.40538E+00  0.00000E+00 -0.73865E-01  0.36929E+00  0.00000E+00 -0.79856E-01  0.32795E+00  0.00000E+00 -0.94098E-01  0.28973E+00  0.00000E+00 -0.10695E+00  0.26199E+00  0.00000E+00 -0.11589E+00
          0.23881E+00  0.00000E+00 -0.12850E+00  0.23020E+00  0.00000E+00 -0.13770E+00  0.22807E+00  0.00000E+00 -0.14596E+00  0.22922E+00  0.00000E+00 -0.15356E+00  0.23205E+00  0.00000E+00 -0.16081E+00  0.23529E+00  0.00000E+00 -0.16796E+00
          0.23836E+00  0.00000E+00 -0.17508E+00  0.24135E+00  0.00000E+00 -0.18249E+00  0.24372E+00  0.00000E+00 -0.19004E+00  0.24605E+00  0.00000E+00 -0.19706E+00  0.24787E+00  0.00000E+00 -0.20530E+00  0.24913E+00  0.00000E+00 -0.21347E+00
          0.25058E+00  0.00000E+00 -0.21926E+00  0.25119E+00  0.00000E+00 -0.22963E+00  0.25102E+00  0.00000E+00 -0.23821E+00  0.25225E+00  0.00000E+00 -0.23983E+00  0.25027E+00  0.00000E+00 -0.25586E+00  0.25094E+00  0.00000E+00 -0.26458E+00
          0.46595E+00  0.00000E+00 -0.18084E-02  0.48749E+00  0.00000E+00 -0.18801E-01  0.49821E+00  0.00000E+00 -0.20736E-01  0.47078E+00  0.00000E+00 -0.31973E-01  0.50723E+00  0.00000E+00 -0.47817E-01  0.48872E+00  0.00000E+00 -0.48722E-01
          0.45679E+00  0.00000E+00 -0.62920E-01  0.43537E+00  0.00000E+00 -0.73006E-01  0.40040E+00  0.00000E+00 -0.79401E-01  0.36049E+00  0.00000E+00 -0.92897E-01  0.32265E+00  0.00000E+00 -0.10563E+00  0.29271E+00  0.00000E+00 -0.11432E+00
          0.26605E+00  0.00000E+00 -0.12707E+00  0.25368E+00  0.00000E+00 -0.13650E+00  0.24824E+00  0.00000E+00 -0.14531E+00  0.24737E+00  0.00000E+00 -0.15343E+00  0.24920E+00  0.00000E+00 -0.16095E+00  0.25202E+00  0.00000E+00 -0.16824E+00
          0.25499E+00  0.00000E+00 -0.17542E+00  0.25805E+00  0.00000E+00 -0.18285E+00  0.26056E+00  0.00000E+00 -0.19037E+00  0.26307E+00  0.00000E+00 -0.19734E+00  0.26508E+00  0.00000E+00 -0.20559E+00  0.26650E+00  0.00000E+00 -0.21365E+00
          0.26816E+00  0.00000E+00 -0.21937E+00  0.26896E+00  0.00000E+00 -0.22987E+00  0.26882E+00  0.00000E+00 -0.23817E+00  0.27035E+00  0.00000E+00 -0.23982E+00  0.26828E+00  0.00000E+00 -0.25592E+00  0.26905E+00  0.00000E+00 -0.26452E+00
          0.50399E+00  0.00000E+00 -0.16673E-02  0.52581E+00  0.00000E+00 -0.19961E-01  0.53718E+00  0.00000E+00 -0.16327E-01  0.50762E+00  0.00000E+00 -0.37022E-01  0.52563E+00  0.00000E+00 -0.42012E-01  0.51140E+00  0.00000E+00 -0.49775E-01