<?xml version="1.0"?>
<VTKFile type="UnstructuredGrid" version="0.1" byte_order="LittleEndian" compressor="vtkZLibDataCompressor">
<UnstructuredGrid>
  <Piece NumberOfPoints="1800"        NumberOfCells="1"      >
    <Points>
      <DataArray type="Float32" NumberOfComponents="3" format="ascii" >
        0.98881E-02  0.00000E+00  0.24851E-02  0.69028E-02  0.00000E+00  0.98720E-02  0.63092E-02  0.00000E+00  0.17713E-01  0.67446E-02  0.00000E+00  0.24908E-01  0.67712E-02  0.00000E+00  0.31925E-01  0.66370E-02  0.00000E+00  0.39232E-01
        0.65476E-02  0.00000E+00  0.46603E-01  0.64850E-02  0.00000E+00  0.54044E-01  0.64177E-02  0.00000E+00  0.61577E-01  0.63581E-02  0.00000E+00  0.69185E-01  0.63030E-02  0.00000E+00  0.76863E-01  0.62505E-02  0.00000E+00  0.84608E-01
        0.62003E-02  0.00000E+00  0.92418E-01  0.61513E-02  0.00000E+00  0.10029E+00  0.61034E-02  0.00000E+00  0.10823E+00  0.60565E-02  0.00000E+00  0.11622E+00  0.60106E-02  0.00000E+00  0.12428E+00  0.59659E-02  0.00000E+00  0.13239E+00
        0.59228E-02  0.00000E+00  0.14057E+00  0.58816E-02  0.00000E+00  0.14880E+00  0.58426E-02  0.00000E+00  0.15709E+00  0.58057E-02  0.00000E+00  0.16542E+00  0.57712E-02  0.00000E+00  0.17381E+00  0.57411E-02  0.00000E+00  0.18225E+00
        0.57076E-02  0.00000E+00  0.19072E+00  0.56941E-02  0.00000E+00  0.19925E+00  0.56417E-02  0.00000E+00  0.20777E+00  0.56703E-02  0.00000E+00  0.21638E+00  0.56161E-02  0.00000E+00  0.22511E+00  0.53540E-02  0.00000E+00  0.23309E+00
        0.25343E-01  0.00000E+00  0.36940E-02  0.18999E-01  0.00000E+00  0.10903E-01  0.20256E-01  0.00000E+00  0.18487E-01  0.20530E-01  0.00000E+00  0.25253E-01  0.19935E-01  0.00000E+00  0.32424E-01  0.19963E-01  0.00000E+00  0.39800E-01
        0.19636E-01  0.00000E+00  0.47084E-01  0.19468E-01  0.00000E+00  0.54506E-01  0.19269E-01  0.00000E+00  0.62020E-01  0.19100E-01  0.00000E+00  0.69595E-01  0.18938E-01  0.00000E+00  0.77251E-01  0.18786E-01  0.00000E+00  0.84977E-01
        0.18641E-01  0.00000E+00  0.92769E-01  0.18501E-01  0.00000E+00  0.10063E+00  0.18367E-01  0.00000E+00  0.10855E+00  0.18238E-01  0.00000E+00  0.11653E+00  0.18113E-01  0.00000E+00  0.12458E+00  0.17992E-01  0.00000E+00  0.13267E+00
        0.17874E-01  0.00000E+00  0.14083E+00  0.17762E-01  0.00000E+00  0.14904E+00  0.17656E-01  0.00000E+00  0.15730E+00  0.17556E-01  0.00000E+00  0.16562E+00  0.17460E-01  0.00000E+00  0.17398E+00  0.17377E-01  0.00000E+00  0.18239E+00
        0.17288E-01  0.00000E+00  0.19082E+00  0.17230E-01  0.00000E+00  0.19935E+00  0.17139E-01  0.00000E+00  0.20780E+00  0.17106E-01  0.00000E+00  0.21639E+00  0.17010E-01  0.00000E+00  0.22516E+00  0.16863E-01  0.00000E+00  0.23293E+00
        0.39552E-01  0.00000E+00  0.39582E-02  0.32854E-01  0.00000E+00  0.11252E-01  0.34211E-01  0.00000E+00  0.18717E-01  0.34249E-01  0.00000E+00  0.25739E-01  0.33631E-01  0.00000E+00  0.33002E-01  0.33489E-01  0.00000E+00  0.40340E-01
        0.33009E-01  0.00000E+00  0.47677E-01  0.32699E-01  0.00000E+00  0.55148E-01  0.32358E-01  0.00000E+00  0.62686E-01  0.32065E-01  0.00000E+00  0.70291E-01  0.31788E-01  0.00000E+00  0.77971E-01  0.31527E-01  0.00000E+00  0.85713E-01
        0.31280E-01  0.00000E+00  0.93516E-01  0.31044E-01  0.00000E+00  0.10138E+00  0.30816E-01  0.00000E+00  0.10930E+00  0.30598E-01  0.00000E+00  0.11728E+00  0.30388E-01  0.00000E+00  0.12532E+00  0.30185E-01  0.00000E+00  0.13340E+00
        0.29990E-01  0.00000E+00  0.14155E+00  0.29805E-01  0.00000E+00  0.14974E+00  0.29628E-01  0.00000E+00  0.15798E+00  0.29462E-01  0.00000E+00  0.16627E+00  0.29306E-01  0.00000E+00  0.17460E+00  0.29161E-01  0.00000E+00  0.18299E+00
        0.29028E-01  0.00000E+00  0.19138E+00  0.28907E-01  0.00000E+00  0.19990E+00  0.28793E-01  0.00000E+00  0.20831E+00  0.28693E-01  0.00000E+00  0.21688E+00  0.28590E-01  0.00000E+00  0.22563E+00  0.28496E-01  0.00000E+00  0.23329E+00
        0.52932E-01  0.00000E+00  0.41043E-02  0.47178E-01  0.00000E+00  0.11618E-01  0.47788E-01  0.00000E+00  0.19075E-01  0.48202E-01  0.00000E+00  0.26158E-01  0.47341E-01  0.00000E+00  0.33420E-01  0.47090E-01  0.00000E+00  0.40755E-01
        0.46476E-01  0.00000E+00  0.48115E-01  0.46010E-01  0.00000E+00  0.55591E-01  0.45554E-01  0.00000E+00  0.63138E-01  0.45144E-01  0.00000E+00  0.70754E-01  0.44763E-01  0.00000E+00  0.78441E-01  0.44403E-01  0.00000E+00  0.86188E-01
        0.44063E-01  0.00000E+00  0.93995E-01  0.43737E-01  0.00000E+00  0.10186E+00  0.43424E-01  0.00000E+00  0.10978E+00  0.43123E-01  0.00000E+00  0.11776E+00  0.42834E-01  0.00000E+00  0.12578E+00  0.42556E-01  0.00000E+00  0.13386E+00
        0.42289E-01  0.00000E+00  0.14199E+00  0.42034E-01  0.00000E+00  0.15017E+00  0.41791E-01  0.00000E+00  0.15839E+00  0.41563E-01  0.00000E+00  0.16665E+00  0.41348E-01  0.00000E+00  0.17496E+00  0.41148E-01  0.00000E+00  0.18332E+00
        0.40965E-01  0.00000E+00  0.19167E+00  0.40796E-01  0.00000E+00  0.20015E+00  0.40651E-01  0.00000E+00  0.20851E+00  0.40507E-01  0.00000E+00  0.21704E+00  0.40415E-01  0.00000E+00  0.22569E+00  0.40299E-01  0.00000E+00  0.23334E+00
        0.65559E-01  0.00000E+00  0.42412E-02  0.61461E-01  0.00000E+00  0.12060E-01  0.61503E-01  0.00000E+00  0.19341E-01  0.62020E-01  0.00000E+00  0.26422E-01  0.61155E-01  0.00000E+00  0.33691E-01  0.60689E-01  0.00000E+00  0.40998E-01
        0.59949E-01  0.00000E+00  0.48348E-01  0.59328E-01  0.00000E+00  0.55820E-01  0.58740E-01  0.00000E+00  0.63361E-01  0.58209E-01  0.00000E+00  0.70977E-01  0.57716E-01  0.00000E+00  0.78666E-01  0.57255E-01  0.00000E+00  0.86417E-01
        0.56819E-01  0.00000E+00  0.94229E-01  0.56402E-01  0.00000E+00  0.10210E+00  0.56002E-01  0.00000E+00  0.11002E+00  0.55619E-01  0.00000E+00  0.11800E+00  0.55250E-01  0.00000E+00  0.12602E+00  0.54896E-01  0.00000E+00  0.13410E+00
        0.54557E-01  0.00000E+00  0.14222E+00  0.54233E-01  0.00000E+00  0.15038E+00  0.53925E-01  0.00000E+00  0.15860E+00  0.53634E-01  0.00000E+00  0.16685E+00  0.53359E-01  0.00000E+00  0.17513E+00  0.53105E-01  0.00000E+00  0.18348E+00
        0.52869E-01  0.00000E+00  0.19180E+00  0.52656E-01  0.00000E+00  0.20027E+00  0.52466E-01  0.00000E+00  0.20860E+00  0.52296E-01  0.00000E+00  0.21711E+00  0.52178E-01  0.00000E+00  0.22574E+00  0.52076E-01  0.00000E+00  0.23333E+00
        0.77582E-01  0.00000E+00  0.43432E-02  0.75726E-01  0.00000E+00  0.12445E-01  0.75372E-01  0.00000E+00  0.19547E-01  0.75863E-01  0.00000E+00  0.26616E-01  0.74977E-01  0.00000E+00  0.33866E-01  0.74293E-01  0.00000E+00  0.41155E-01
        0.73421E-01  0.00000E+00  0.48505E-01  0.72643E-01  0.00000E+00  0.55968E-01  0.71922E-01  0.00000E+00  0.63503E-01  0.71268E-01  0.00000E+00  0.71114E-01  0.70665E-01  0.00000E+00  0.78798E-01  0.70102E-01  0.00000E+00  0.86545E-01
        0.69572E-01  0.00000E+00  0.94353E-01  0.69068E-01  0.00000E+00  0.10222E+00  0.68587E-01  0.00000E+00  0.11014E+00  0.68125E-01  0.00000E+00  0.11811E+00  0.67683E-01  0.00000E+00  0.12613E+00  0.67259E-01  0.00000E+00  0.13419E+00
        0.66853E-01  0.00000E+00  0.14231E+00  0.66465E-01  0.00000E+00  0.15046E+00  0.66097E-01  0.00000E+00  0.15866E+00  0.65749E-01  0.00000E+00  0.16690E+00  0.65422E-01  0.00000E+00  0.17517E+00  0.65119E-01  0.00000E+00  0.18350E+00
        0.64841E-01  0.00000E+00  0.19180E+00  0.64589E-01  0.00000E+00  0.20025E+00  0.64371E-01  0.00000E+00  0.20854E+00  0.64180E-01  0.00000E+00  0.21703E+00  0.64052E-01  0.00000E+00  0.22562E+00  0.63923E-01  0.00000E+00  0.23318E+00
        0.89292E-01  0.00000E+00  0.43734E-02  0.89947E-01  0.00000E+00  0.12595E-01  0.89428E-01  0.00000E+00  0.19670E-01  0.89738E-01  0.00000E+00  0.26712E-01  0.88851E-01  0.00000E+00  0.33940E-01  0.87930E-01  0.00000E+00  0.41215E-01
        0.86925E-01  0.00000E+00  0.48560E-01  0.85993E-01  0.00000E+00  0.56013E-01  0.85137E-01  0.00000E+00  0.63538E-01  0.84359E-01  0.00000E+00  0.71139E-01  0.83643E-01  0.00000E+00  0.78813E-01  0.82978E-01  0.00000E+00  0.86551E-01
        0.82353E-01  0.00000E+00  0.94351E-01  0.81760E-01  0.00000E+00  0.10221E+00  0.81195E-01  0.00000E+00  0.11012E+00  0.80656E-01  0.00000E+00  0.11808E+00  0.80139E-01  0.00000E+00  0.12609E+00  0.79644E-01  0.00000E+00  0.13415E+00
        0.79171E-01  0.00000E+00  0.14225E+00  0.78720E-01  0.00000E+00  0.15040E+00  0.78292E-01  0.00000E+00  0.15859E+00  0.77888E-01  0.00000E+00  0.16681E+00  0.77508E-01  0.00000E+00  0.17507E+00  0.77157E-01  0.00000E+00  0.18338E+00
        0.76833E-01  0.00000E+00  0.19167E+00  0.76544E-01  0.00000E+00  0.20010E+00  0.76289E-01  0.00000E+00  0.20837E+00  0.76072E-01  0.00000E+00  0.21685E+00  0.75919E-01  0.00000E+00  0.22542E+00  0.75777E-01  0.00000E+00  0.23296E+00
        0.10109E+00  0.00000E+00  0.43264E-02  0.10381E+00  0.00000E+00  0.12493E-01  0.10359E+00  0.00000E+00  0.19714E-01  0.10366E+00  0.00000E+00  0.26720E-01  0.10275E+00  0.00000E+00  0.33920E-01  0.10159E+00  0.00000E+00  0.41193E-01
        0.10045E+00  0.00000E+00  0.48532E-01  0.99361E-01  0.00000E+00  0.55975E-01  0.98370E-01  0.00000E+00  0.63494E-01  0.97468E-01  0.00000E+00  0.71085E-01  0.96639E-01  0.00000E+00  0.78748E-01  0.95870E-01  0.00000E+00  0.86476E-01
        0.95149E-01  0.00000E+00  0.94264E-01  0.94467E-01  0.00000E+00  0.10211E+00  0.93819E-01  0.00000E+00  0.11001E+00  0.93202E-01  0.00000E+00  0.11796E+00  0.92611E-01  0.00000E+00  0.12596E+00  0.92047E-01  0.00000E+00  0.13401E+00
        0.91508E-01  0.00000E+00  0.14210E+00  0.90995E-01  0.00000E+00  0.15024E+00  0.90508E-01  0.00000E+00  0.15841E+00  0.90049E-01  0.00000E+00  0.16663E+00  0.89619E-01  0.00000E+00  0.17487E+00  0.89222E-01  0.00000E+00  0.18317E+00
        0.88857E-01  0.00000E+00  0.19144E+00  0.88531E-01  0.00000E+00  0.19985E+00  0.88246E-01  0.00000E+00  0.20810E+00  0.88007E-01  0.00000E+00  0.21657E+00  0.87838E-01  0.00000E+00  0.22512E+00  0.87672E-01  0.00000E+00  0.23262E+00
[...]
<PointData>
      <DataArray type="Float32" Name="Velocity vectors"  NumberOfComponents="3"  format="ascii" >
          0.17208E-01  0.00000E+00 -0.89353E-03  0.92797E-02  0.00000E+00 -0.12830E-01  0.69651E-02  0.00000E+00 -0.19152E-01  0.10943E-01  0.00000E+00 -0.33449E-01  0.12453E-01  0.00000E+00 -0.49780E-01  0.10350E-01  0.00000E+00 -0.62128E-01
          0.84758E-02  0.00000E+00 -0.73027E-01  0.77736E-02  0.00000E+00 -0.83551E-01  0.71112E-02  0.00000E+00 -0.93158E-01  0.65756E-02  0.00000E+00 -0.10225E+00  0.62356E-02  0.00000E+00 -0.11110E+00  0.59754E-02  0.00000E+00 -0.11977E+00
          0.57942E-02  0.00000E+00 -0.12831E+00  0.56550E-02  0.00000E+00 -0.13676E+00  0.55493E-02  0.00000E+00 -0.14517E+00  0.54688E-02  0.00000E+00 -0.15356E+00  0.53945E-02  0.00000E+00 -0.16197E+00  0.53129E-02  0.00000E+00 -0.17043E+00
          0.52135E-02  0.00000E+00 -0.17892E+00  0.50979E-02  0.00000E+00 -0.18739E+00  0.49807E-02  0.00000E+00 -0.19581E+00  0.48420E-02  0.00000E+00 -0.20418E+00  0.47291E-02  0.00000E+00 -0.21243E+00  0.45908E-02  0.00000E+00 -0.22062E+00
          0.44318E-02  0.00000E+00 -0.22871E+00  0.44820E-02  0.00000E+00 -0.23643E+00  0.38451E-02  0.00000E+00 -0.24478E+00  0.47831E-02  0.00000E+00 -0.25160E+00  0.35452E-02  0.00000E+00 -0.25928E+00  0.25492E-02  0.00000E+00 -0.27048E+00
          0.49092E-01  0.00000E+00 -0.50205E-02  0.12522E-01  0.00000E+00 -0.18924E-01  0.40923E-01  0.00000E+00 -0.26151E-01  0.39349E-01  0.00000E+00 -0.42514E-01  0.26284E-01  0.00000E+00 -0.56383E-01  0.30339E-01  0.00000E+00 -0.64450E-01
          0.23372E-01  0.00000E+00 -0.74789E-01  0.22399E-01  0.00000E+00 -0.84301E-01  0.20415E-01  0.00000E+00 -0.92825E-01  0.19487E-01  0.00000E+00 -0.10144E+00  0.18709E-01  0.00000E+00 -0.11000E+00  0.18096E-01  0.00000E+00 -0.11844E+00
          0.17601E-01  0.00000E+00 -0.12690E+00  0.17152E-01  0.00000E+00 -0.13531E+00  0.16760E-01  0.00000E+00 -0.14368E+00  0.16438E-01  0.00000E+00 -0.15202E+00  0.16242E-01  0.00000E+00 -0.16034E+00  0.16038E-01  0.00000E+00 -0.16868E+00
          0.15793E-01  0.00000E+00 -0.17702E+00  0.15504E-01  0.00000E+00 -0.18538E+00  0.15204E-01  0.00000E+00 -0.19367E+00  0.14870E-01  0.00000E+00 -0.20203E+00  0.14540E-01  0.00000E+00 -0.21022E+00  0.14243E-01  0.00000E+00 -0.21838E+00
          0.13797E-01  0.00000E+00 -0.22678E+00  0.13741E-01  0.00000E+00 -0.23400E+00  0.12920E-01  0.00000E+00 -0.24345E+00  0.13434E-01  0.00000E+00 -0.24946E+00  0.12284E-01  0.00000E+00 -0.25730E+00  0.12180E-01  0.00000E+00 -0.26970E+00
          0.83738E-01  0.00000E+00 -0.64072E-02  0.34998E-01  0.00000E+00 -0.22168E-01  0.67503E-01  0.00000E+00 -0.30121E-01  0.60628E-01  0.00000E+00 -0.42368E-01  0.47067E-01  0.00000E+00 -0.55402E-01  0.48420E-01  0.00000E+00 -0.64313E-01
          0.39570E-01  0.00000E+00 -0.74546E-01  0.37770E-01  0.00000E+00 -0.83498E-01  0.34660E-01  0.00000E+00 -0.91728E-01  0.33223E-01  0.00000E+00 -0.99967E-01  0.32060E-01  0.00000E+00 -0.10797E+00  0.31179E-01  0.00000E+00 -0.11593E+00
          0.30471E-01  0.00000E+00 -0.12396E+00  0.29860E-01  0.00000E+00 -0.13201E+00  0.29348E-01  0.00000E+00 -0.14012E+00  0.28919E-01  0.00000E+00 -0.14830E+00  0.28519E-01  0.00000E+00 -0.15647E+00  0.28129E-01  0.00000E+00 -0.16462E+00
          0.27723E-01  0.00000E+00 -0.17277E+00  0.27296E-01  0.00000E+00 -0.18096E+00  0.26843E-01  0.00000E+00 -0.18909E+00  0.26389E-01  0.00000E+00 -0.19738E+00  0.25904E-01  0.00000E+00 -0.20552E+00  0.25435E-01  0.00000E+00 -0.21365E+00
          0.24945E-01  0.00000E+00 -0.22227E+00  0.24462E-01  0.00000E+00 -0.22929E+00  0.23957E-01  0.00000E+00 -0.23934E+00  0.23548E-01  0.00000E+00 -0.24515E+00  0.22869E-01  0.00000E+00 -0.25353E+00  0.22332E-01  0.00000E+00 -0.26627E+00
          0.11827E+00  0.00000E+00 -0.55564E-02  0.60665E-01  0.00000E+00 -0.24208E-01  0.79340E-01  0.00000E+00 -0.26858E-01  0.86873E-01  0.00000E+00 -0.38198E-01  0.65017E-01  0.00000E+00 -0.51260E-01  0.66177E-01  0.00000E+00 -0.60689E-01
          0.55571E-01  0.00000E+00 -0.70987E-01  0.51914E-01  0.00000E+00 -0.80036E-01  0.48298E-01  0.00000E+00 -0.88508E-01  0.46255E-01  0.00000E+00 -0.96843E-01  0.44847E-01  0.00000E+00 -0.10494E+00  0.43833E-01  0.00000E+00 -0.11296E+00
          0.43053E-01  0.00000E+00 -0.12100E+00  0.42374E-01  0.00000E+00 -0.12903E+00  0.41759E-01  0.00000E+00 -0.13709E+00  0.41202E-01  0.00000E+00 -0.14515E+00  0.40680E-01  0.00000E+00 -0.15321E+00  0.40181E-01  0.00000E+00 -0.16128E+00
          0.39685E-01  0.00000E+00 -0.16935E+00  0.39191E-01  0.00000E+00 -0.17750E+00  0.38677E-01  0.00000E+00 -0.18558E+00  0.38163E-01  0.00000E+00 -0.19387E+00  0.37618E-01  0.00000E+00 -0.20203E+00  0.37065E-01  0.00000E+00 -0.21021E+00
          0.36521E-01  0.00000E+00 -0.21897E+00  0.35899E-01  0.00000E+00 -0.22610E+00  0.35443E-01  0.00000E+00 -0.23642E+00  0.34734E-01  0.00000E+00 -0.24236E+00  0.34520E-01  0.00000E+00 -0.25120E+00  0.33909E-01  0.00000E+00 -0.26446E+00
          0.13778E+00  0.00000E+00 -0.23022E-02  0.83632E-01  0.00000E+00 -0.17774E-01  0.91926E-01  0.00000E+00 -0.21707E-01  0.10837E+00  0.00000E+00 -0.33762E-01  0.86872E-01  0.00000E+00 -0.45888E-01  0.83820E-01  0.00000E+00 -0.56130E-01
          0.72689E-01  0.00000E+00 -0.67042E-01  0.67363E-01  0.00000E+00 -0.76569E-01  0.62956E-01  0.00000E+00 -0.85671E-01  0.60199E-01  0.00000E+00 -0.94494E-01  0.58310E-01  0.00000E+00 -0.10293E+00  0.56961E-01  0.00000E+00 -0.11118E+00
          0.55928E-01  0.00000E+00 -0.11932E+00  0.55056E-01  0.00000E+00 -0.12738E+00  0.54285E-01  0.00000E+00 -0.13540E+00  0.53582E-01  0.00000E+00 -0.14341E+00  0.52918E-01  0.00000E+00 -0.15141E+00  0.52290E-01  0.00000E+00 -0.15941E+00
          0.51694E-01  0.00000E+00 -0.16742E+00  0.51126E-01  0.00000E+00 -0.17551E+00  0.50569E-01  0.00000E+00 -0.18355E+00  0.50018E-01  0.00000E+00 -0.19182E+00  0.49448E-01  0.00000E+00 -0.19996E+00  0.48886E-01  0.00000E+00 -0.20819E+00
          0.48280E-01  0.00000E+00 -0.21700E+00  0.47710E-01  0.00000E+00 -0.22421E+00  0.47101E-01  0.00000E+00 -0.23477E+00  0.46550E-01  0.00000E+00 -0.24075E+00  0.46091E-01  0.00000E+00 -0.24991E+00  0.45642E-01  0.00000E+00 -0.26323E+00
          0.13811E+00  0.00000E+00  0.14161E-02  0.11167E+00  0.00000E+00 -0.67100E-02  0.10834E+00  0.00000E+00 -0.16667E-01  0.13039E+00  0.00000E+00 -0.29740E-01  0.10945E+00  0.00000E+00 -0.41558E-01  0.10256E+00  0.00000E+00 -0.52398E-01
          0.90721E-01  0.00000E+00 -0.63629E-01  0.83612E-01  0.00000E+00 -0.73491E-01  0.78193E-01  0.00000E+00 -0.83001E-01  0.74564E-01  0.00000E+00 -0.92115E-01  0.72028E-01  0.00000E+00 -0.10080E+00  0.70204E-01  0.00000E+00 -0.10928E+00
          0.68821E-01  0.00000E+00 -0.11756E+00  0.67688E-01  0.00000E+00 -0.12572E+00  0.66702E-01  0.00000E+00 -0.13380E+00  0.65826E-01  0.00000E+00 -0.14183E+00  0.65036E-01  0.00000E+00 -0.14986E+00  0.64324E-01  0.00000E+00 -0.15788E+00
          0.63675E-01  0.00000E+00 -0.16594E+00  0.63076E-01  0.00000E+00 -0.17407E+00  0.62508E-01  0.00000E+00 -0.18216E+00  0.61963E-01  0.00000E+00 -0.19048E+00  0.61405E-01  0.00000E+00 -0.19866E+00  0.60861E-01  0.00000E+00 -0.20697E+00
          0.60281E-01  0.00000E+00 -0.21586E+00  0.59714E-01  0.00000E+00 -0.22313E+00  0.59171E-01  0.00000E+00 -0.23389E+00  0.58610E-01  0.00000E+00 -0.23985E+00  0.58333E-01  0.00000E+00 -0.24927E+00  0.57759E-01  0.00000E+00 -0.26280E+00
          0.12690E+00  0.00000E+00  0.28300E-02  0.14494E+00  0.00000E+00 -0.17500E-02  0.13059E+00  0.00000E+00 -0.13812E-01  0.15190E+00  0.00000E+00 -0.27486E-01  0.13320E+00  0.00000E+00 -0.39194E-01  0.12165E+00  0.00000E+00 -0.50150E-01
          0.10935E+00  0.00000E+00 -0.61253E-01  0.10057E+00  0.00000E+00 -0.71279E-01  0.94101E-01  0.00000E+00 -0.80970E-01  0.89581E-01  0.00000E+00 -0.90288E-01  0.86335E-01  0.00000E+00 -0.99192E-01  0.83955E-01  0.00000E+00 -0.10786E+00
          0.82120E-01  0.00000E+00 -0.11631E+00  0.80637E-01  0.00000E+00 -0.12459E+00  0.79395E-01  0.00000E+00 -0.13276E+00  0.78332E-01  0.00000E+00 -0.14087E+00  0.77407E-01  0.00000E+00 -0.14896E+00  0.76595E-01  0.00000E+00 -0.15705E+00
          0.75874E-01  0.00000E+00 -0.16516E+00  0.75226E-01  0.00000E+00 -0.17334E+00  0.74630E-01  0.00000E+00 -0.18147E+00  0.74078E-01  0.00000E+00 -0.18985E+00  0.73536E-01  0.00000E+00 -0.19807E+00  0.73021E-01  0.00000E+00 -0.20644E+00
          0.72478E-01  0.00000E+00 -0.21537E+00  0.71975E-01  0.00000E+00 -0.22270E+00  0.71437E-01  0.00000E+00 -0.23360E+00  0.70976E-01  0.00000E+00 -0.23956E+00  0.70571E-01  0.00000E+00 -0.24911E+00  0.69989E-01  0.00000E+00 -0.26268E+00
          0.11868E+00  0.00000E+00  0.14474E-02  0.16490E+00  0.00000E+00 -0.51669E-02  0.15852E+00  0.00000E+00 -0.12754E-01  0.17318E+00  0.00000E+00 -0.27178E-01  0.15706E+00  0.00000E+00 -0.39207E-01  0.14115E+00  0.00000E+00 -0.49662E-01
          0.12823E+00  0.00000E+00 -0.60423E-01  0.11792E+00  0.00000E+00 -0.70443E-01  0.11041E+00  0.00000E+00 -0.79999E-01  0.10497E+00  0.00000E+00 -0.89316E-01  0.10097E+00  0.00000E+00 -0.98256E-01  0.97986E-01  0.00000E+00 -0.10696E+00
          0.95661E-01  0.00000E+00 -0.11547E+00  0.93789E-01  0.00000E+00 -0.12382E+00  0.92246E-01  0.00000E+00 -0.13206E+00  0.90967E-01  0.00000E+00 -0.14023E+00  0.89891E-01  0.00000E+00 -0.14838E+00  0.88976E-01  0.00000E+00 -0.15652E+00
          0.88188E-01  0.00000E+00 -0.16469E+00  0.87501E-01  0.00000E+00 -0.17293E+00  0.86890E-01  0.00000E+00 -0.18112E+00  0.86339E-01  0.00000E+00 -0.18958E+00  0.85817E-01  0.00000E+00 -0.19784E+00  0.85332E-01  0.00000E+00 -0.20630E+00
          0.84828E-01  0.00000E+00 -0.21528E+00  0.84376E-01  0.00000E+00 -0.22264E+00  0.83872E-01  0.00000E+00 -0.23367E+00  0.83452E-01  0.00000E+00 -0.23957E+00  0.83102E-01  0.00000E+00 -0.24927E+00  0.82419E-01  0.00000E+00 -0.26294E+00
          0.12054E+00  0.00000E+00 -0.18917E-03  0.17225E+00  0.00000E+00 -0.85665E-02  0.18959E+00  0.00000E+00 -0.13787E-01  0.19343E+00  0.00000E+00 -0.27861E-01  0.18068E+00  0.00000E+00 -0.40015E-01  0.16052E+00  0.00000E+00 -0.50074E-01
          0.14678E+00  0.00000E+00 -0.60381E-01  0.13517E+00  0.00000E+00 -0.70292E-01  0.12671E+00  0.00000E+00 -0.79587E-01  0.12045E+00  0.00000E+00 -0.88811E-01  0.11575E+00  0.00000E+00 -0.97716E-01  0.11221E+00  0.00000E+00 -0.10641E+00
          0.10942E+00  0.00000E+00 -0.11495E+00  0.10718E+00  0.00000E+00 -0.12335E+00  0.10535E+00  0.00000E+00 -0.13166E+00  0.10385E+00  0.00000E+00 -0.13991E+00  0.10261E+00  0.00000E+00 -0.14814E+00  0.10158E+00  0.00000E+00 -0.15635E+00
          0.10071E+00  0.00000E+00 -0.16458E+00  0.99974E-01  0.00000E+00 -0.17289E+00  0.99335E-01  0.00000E+00 -0.18113E+00  0.98776E-01  0.00000E+00 -0.18965E+00  0.98263E-01  0.00000E+00 -0.19796E+00  0.97805E-01  0.00000E+00 -0.20649E+00
          0.97336E-01  0.00000E+00 -0.21552E+00  0.96939E-01  0.00000E+00 -0.22292E+00  0.96465E-01  0.00000E+00 -0.23405E+00  0.96101E-01  0.00000E+00 -0.23993E+00  0.95694E-01  0.00000E+00 -0.24974E+00  0.94945E-01  0.00000E+00 -0.26343E+00
          0.13098E+00  0.00000E+00 -0.15420E-02  0.17629E+00  0.00000E+00 -0.95543E-02  0.22060E+00  0.00000E+00 -0.16719E-01  0.21317E+00  0.00000E+00 -0.28662E-01  0.20413E+00  0.00000E+00 -0.40866E-01  0.17979E+00  0.00000E+00 -0.50994E-01
          0.16519E+00  0.00000E+00 -0.60664E-01  0.15242E+00  0.00000E+00 -0.70572E-01  0.14306E+00  0.00000E+00 -0.79640E-01  0.13604E+00  0.00000E+00 -0.88740E-01  0.13070E+00  0.00000E+00 -0.97588E-01  0.12662E+00  0.00000E+00 -0.10622E+00
          0.12339E+00  0.00000E+00 -0.11476E+00  0.12079E+00  0.00000E+00 -0.12317E+00  0.11868E+00  0.00000E+00 -0.13153E+00  0.11695E+00  0.00000E+00 -0.13983E+00  0.11552E+00  0.00000E+00 -0.14812E+00  0.11436E+00  0.00000E+00 -0.15640E+00
          0.11340E+00  0.00000E+00 -0.16469E+00  0.11261E+00  0.00000E+00 -0.17305E+00  0.11194E+00  0.00000E+00 -0.18135E+00  0.11138E+00  0.00000E+00 -0.18994E+00  0.11087E+00  0.00000E+00 -0.19829E+00  0.11044E+00  0.00000E+00 -0.20690E+00
          0.10999E+00  0.00000E+00 -0.21598E+00  0.10964E+00  0.00000E+00 -0.22342E+00  0.10918E+00  0.00000E+00 -0.23466E+00  0.10885E+00  0.00000E+00 -0.24048E+00  0.10845E+00  0.00000E+00 -0.25041E+00  0.10761E+00  0.00000E+00 -0.26417E+00
          0.14512E+00  0.00000E+00 -0.25747E-02  0.18256E+00  0.00000E+00 -0.97959E-02  0.24948E+00  0.00000E+00 -0.21212E-01  0.23266E+00  0.00000E+00 -0.29630E-01  0.22717E+00  0.00000E+00 -0.41777E-01  0.19881E+00  0.00000E+00 -0.52268E-01
          0.18342E+00  0.00000E+00 -0.60993E-01  0.16954E+00  0.00000E+00 -0.70982E-01  0.15933E+00  0.00000E+00 -0.79835E-01  0.15163E+00  0.00000E+00 -0.88780E-01  0.14570E+00  0.00000E+00 -0.97590E-01  0.14112E+00  0.00000E+00 -0.10616E+00
          0.13750E+00  0.00000E+00 -0.11470E+00  0.13458E+00  0.00000E+00 -0.12313E+00  0.13221E+00  0.00000E+00 -0.13152E+00  0.13027E+00  0.00000E+00 -0.13988E+00  0.12867E+00  0.00000E+00 -0.14824E+00  0.12737E+00  0.00000E+00 -0.15659E+00
          0.12630E+00  0.00000E+00 -0.16497E+00  0.12544E+00  0.00000E+00 -0.17340E+00  0.12474E+00  0.00000E+00 -0.18176E+00  0.12415E+00  0.00000E+00 -0.19042E+00  0.12365E+00  0.00000E+00 -0.19881E+00  0.12323E+00  0.00000E+00 -0.20750E+00
          0.12280E+00  0.00000E+00 -0.21662E+00  0.12249E+00  0.00000E+00 -0.22411E+00  0.12204E+00  0.00000E+00 -0.23547E+00  0.12174E+00  0.00000E+00 -0.24124E+00  0.12131E+00  0.00000E+00 -0.25129E+00  0.12039E+00  0.00000E+00 -0.26509E+00
          0.16135E+00  0.00000E+00 -0.36783E-02  0.19360E+00  0.00000E+00 -0.10197E-01  0.27453E+00  0.00000E+00 -0.25935E-01  0.25201E+00  0.00000E+00 -0.31039E-01  0.24959E+00  0.00000E+00 -0.42694E-01  0.21752E+00  0.00000E+00 -0.53745E-01
          0.20156E+00  0.00000E+00 -0.61370E-01  0.18666E+00  0.00000E+00 -0.71485E-01  0.17567E+00  0.00000E+00 -0.80150E-01  0.16735E+00  0.00000E+00 -0.88939E-01  0.16088E+00  0.00000E+00 -0.97740E-01  0.15583E+00  0.00000E+00 -0.10626E+00
          0.15183E+00  0.00000E+00 -0.11480E+00  0.14861E+00  0.00000E+00 -0.12324E+00  0.14599E+00  0.00000E+00 -0.13166E+00  0.14383E+00  0.00000E+00 -0.14007E+00  0.14206E+00  0.00000E+00 -0.14848E+00  0.14061E+00  0.00000E+00 -0.15690E+00
          0.13943E+00  0.00000E+00 -0.16535E+00  0.13849E+00  0.00000E+00 -0.17386E+00  0.13772E+00  0.00000E+00 -0.18229E+00  0.13711E+00  0.00000E+00 -0.19103E+00  0.13660E+00  0.00000E+00 -0.19947E+00  0.13619E+00  0.00000E+00 -0.20825E+00
          0.13578E+00  0.00000E+00 -0.21741E+00  0.13549E+00  0.00000E+00 -0.22495E+00  0.13504E+00  0.00000E+00 -0.23643E+00  0.13477E+00  0.00000E+00 -0.24214E+00  0.13430E+00  0.00000E+00 -0.25233E+00  0.13331E+00  0.00000E+00 -0.26619E+00
          0.17967E+00  0.00000E+00 -0.48759E-02  0.21050E+00  0.00000E+00 -0.10885E-01  0.29569E+00  0.00000E+00 -0.30019E-01  0.27141E+00  0.00000E+00 -0.32962E-01  0.27131E+00  0.00000E+00 -0.43682E-01  0.23593E+00  0.00000E+00 -0.55412E-01
          0.21961E+00  0.00000E+00 -0.61905E-01  0.20372E+00  0.00000E+00 -0.72097E-01  0.19204E+00  0.00000E+00 -0.80568E-01  0.18314E+00  0.00000E+00 -0.89174E-01  0.17617E+00  0.00000E+00 -0.97955E-01  0.17070E+00  0.00000E+00 -0.10642E+00
          0.16634E+00  0.00000E+00 -0.11495E+00  0.16282E+00  0.00000E+00 -0.12341E+00  0.15997E+00  0.00000E+00 -0.13185E+00  0.15762E+00  0.00000E+00 -0.14031E+00  0.15568E+00  0.00000E+00 -0.14878E+00  0.15410E+00  0.00000E+00 -0.15726E+00
          0.15281E+00  0.00000E+00 -0.16579E+00  0.15177E+00  0.00000E+00 -0.17438E+00  0.15094E+00  0.00000E+00 -0.18290E+00  0.15028E+00  0.00000E+00 -0.19174E+00  0.14975E+00  0.00000E+00 -0.20023E+00  0.14934E+00  0.00000E+00 -0.20912E+00
          0.14893E+00  0.00000E+00 -0.21833E+00  0.14866E+00  0.00000E+00 -0.22591E+00  0.14820E+00  0.00000E+00 -0.23753E+00  0.14795E+00  0.00000E+00 -0.24318E+00  0.14745E+00  0.00000E+00 -0.25352E+00  0.14636E+00  0.00000E+00 -0.26744E+00
          0.20060E+00  0.00000E+00 -0.58526E-02  0.23260E+00  0.00000E+00 -0.11963E-01  0.31431E+00  0.00000E+00 -0.32640E-01  0.29097E+00  0.00000E+00 -0.35006E-01  0.29232E+00  0.00000E+00 -0.44574E-01  0.25404E+00  0.00000E+00 -0.57030E-01
          0.23756E+00  0.00000E+00 -0.62506E-01  0.22075E+00  0.00000E+00 -0.72742E-01  0.20848E+00  0.00000E+00 -0.81041E-01  0.19908E+00  0.00000E+00 -0.89469E-01  0.19165E+00  0.00000E+00 -0.98233E-01  0.18579E+00  0.00000E+00 -0.10664E+00
          0.18110E+00  0.00000E+00 -0.11517E+00  0.17730E+00  0.00000E+00 -0.12366E+00  0.17421E+00  0.00000E+00 -0.13212E+00  0.17167E+00  0.00000E+00 -0.14062E+00  0.16957E+00  0.00000E+00 -0.14915E+00  0.16785E+00  0.00000E+00 -0.15769E+00
          0.16644E+00  0.00000E+00 -0.16630E+00  0.16531E+00  0.00000E+00 -0.17497E+00  0.16440E+00  0.00000E+00 -0.18358E+00  0.16369E+00  0.00000E+00 -0.19251E+00  0.16312E+00  0.00000E+00 -0.20108E+00  0.16269E+00  0.00000E+00 -0.21008E+00
          0.16227E+00  0.00000E+00 -0.21934E+00  0.16202E+00  0.00000E+00 -0.22699E+00  0.16153E+00  0.00000E+00 -0.23877E+00  0.16130E+00  0.00000E+00 -0.24433E+00  0.16076E+00  0.00000E+00 -0.25485E+00  0.15959E+00  0.00000E+00 -0.26885E+00
          0.22457E+00  0.00000E+00 -0.63979E-02  0.25823E+00  0.00000E+00 -0.13019E-01  0.33211E+00  0.00000E+00 -0.33766E-01  0.31102E+00  0.00000E+00 -0.36745E-01  0.31296E+00  0.00000E+00 -0.45128E-01  0.27203E+00  0.00000E+00 -0.58434E-01
          0.25550E+00  0.00000E+00 -0.63088E-01  0.23778E+00  0.00000E+00 -0.73377E-01  0.22500E+00  0.00000E+00 -0.81535E-01  0.21515E+00  0.00000E+00 -0.89807E-01  0.20729E+00  0.00000E+00 -0.98542E-01  0.20108E+00  0.00000E+00 -0.10691E+00
          0.19608E+00  0.00000E+00 -0.11543E+00  0.19200E+00  0.00000E+00 -0.12393E+00  0.18869E+00  0.00000E+00 -0.13242E+00  0.18597E+00  0.00000E+00 -0.14096E+00  0.18372E+00  0.00000E+00 -0.14954E+00  0.18187E+00  0.00000E+00 -0.15815E+00
          0.18035E+00  0.00000E+00 -0.16684E+00  0.17912E+00  0.00000E+00 -0.17560E+00  0.17814E+00  0.00000E+00 -0.18429E+00  0.17735E+00  0.00000E+00 -0.19335E+00  0.17674E+00  0.00000E+00 -0.20198E+00  0.17627E+00  0.00000E+00 -0.21112E+00
          0.17583E+00  0.00000E+00 -0.22045E+00  0.17558E+00  0.00000E+00 -0.22817E+00  0.17506E+00  0.00000E+00 -0.24012E+00  0.17485E+00  0.00000E+00 -0.24560E+00  0.17425E+00  0.00000E+00 -0.25631E+00  0.17299E+00  0.00000E+00 -0.27039E+00
          0.25134E+00  0.00000E+00 -0.65384E-02  0.28582E+00  0.00000E+00 -0.13743E-01  0.35018E+00  0.00000E+00 -0.33823E-01  0.33191E+00  0.00000E+00 -0.37928E-01  0.33352E+00  0.00000E+00 -0.45246E-01  0.29011E+00  0.00000E+00 -0.59502E-01
          0.27354E+00  0.00000E+00 -0.63496E-01  0.25489E+00  0.00000E+00 -0.73902E-01  0.24165E+00  0.00000E+00 -0.81952E-01  0.23139E+00  0.00000E+00 -0.90115E-01  0.22316E+00  0.00000E+00 -0.98831E-01  0.21663E+00  0.00000E+00 -0.10717E+00
          0.21134E+00  0.00000E+00 -0.11569E+00  0.20700E+00  0.00000E+00 -0.12423E+00  0.20346E+00  0.00000E+00 -0.13276E+00  0.20056E+00  0.00000E+00 -0.14135E+00  0.19816E+00  0.00000E+00 -0.14999E+00  0.19619E+00  0.00000E+00 -0.15866E+00
          0.19456E+00  0.00000E+00 -0.16743E+00  0.19323E+00  0.00000E+00 -0.17627E+00  0.19217E+00  0.00000E+00 -0.18506E+00  0.19131E+00  0.00000E+00 -0.19423E+00  0.19064E+00  0.00000E+00 -0.20293E+00  0.19012E+00  0.00000E+00 -0.21223E+00
          0.18965E+00  0.00000E+00 -0.22162E+00  0.18938E+00  0.00000E+00 -0.22943E+00  0.18882E+00  0.00000E+00 -0.24158E+00  0.18861E+00  0.00000E+00 -0.24695E+00  0.18795E+00  0.00000E+00 -0.25790E+00  0.18661E+00  0.00000E+00 -0.27206E+00
          0.28023E+00  0.00000E+00 -0.63986E-02  0.31430E+00  0.00000E+00 -0.14063E-01  0.36906E+00  0.00000E+00 -0.33348E-01  0.35402E+00  0.00000E+00 -0.38521E-01  0.35425E+00  0.00000E+00 -0.44960E-01  0.30857E+00  0.00000E+00 -0.60224E-01