<?xml version="1.0"?>
<VTKFile type="UnstructuredGrid" version="0.1" byte_order="LittleEndian" compressor="vtkZLibDataCompressor">
<UnstructuredGrid>
  <Piece NumberOfPoints="1800"        NumberOfCells="1"      >
    <Points>
      <DataArray type="Float32" NumberOfComponents="3" format="ascii" >
        0.51045E-02  0.00000E+00  0.48002E-02  0.50572E-02  0.00000E+00  0.14800E-01  0.51028E-02  0.00000E+00  0.24508E-01  0.50697E-02  0.00000E+00  0.34335E-01  0.50755E-02  0.00000E+00  0.44135E-01  0.50708E-02  0.00000E+00  0.53945E-01
        0.50675E-02  0.00000E+00  0.63760E-01  0.50644E-02  0.00000E+00  0.73580E-01  0.50607E-02  0.00000E+00  0.83405E-01  0.50573E-02  0.00000E+00  0.93236E-01  0.50537E-02  0.00000E+00  0.10307E+00  0.50501E-02  0.00000E+00  0.11292E+00
        0.50465E-02  0.00000E+00  0.12277E+00  0.50428E-02  0.00000E+00  0.13262E+00  0.50391E-02  0.00000E+00  0.14249E+00  0.50353E-02  0.00000E+00  0.15236E+00  0.50316E-02  0.00000E+00  0.16223E+00  0.50279E-02  0.00000E+00  0.17212E+00
        0.50242E-02  0.00000E+00  0.18201E+00  0.50206E-02  0.00000E+00  0.19191E+00  0.50171E-02  0.00000E+00  0.20182E+00  0.50136E-02  0.00000E+00  0.21173E+00  0.50107E-02  0.00000E+00  0.22166E+00  0.50077E-02  0.00000E+00  0.23159E+00
        0.50060E-02  0.00000E+00  0.24153E+00  0.50034E-02  0.00000E+00  0.25148E+00  0.50052E-02  0.00000E+00  0.26143E+00  0.50022E-02  0.00000E+00  0.27138E+00  0.50107E-02  0.00000E+00  0.28136E+00  0.50207E-02  0.00000E+00  0.29126E+00
        0.15467E-01  0.00000E+00  0.48987E-02  0.15333E-01  0.00000E+00  0.14798E-01  0.15344E-01  0.00000E+00  0.24499E-01  0.15339E-01  0.00000E+00  0.34347E-01  0.15333E-01  0.00000E+00  0.44139E-01  0.15327E-01  0.00000E+00  0.53946E-01
        0.15318E-01  0.00000E+00  0.63758E-01  0.15310E-01  0.00000E+00  0.73571E-01  0.15301E-01  0.00000E+00  0.83392E-01  0.15291E-01  0.00000E+00  0.93218E-01  0.15282E-01  0.00000E+00  0.10305E+00  0.15271E-01  0.00000E+00  0.11289E+00
        0.15261E-01  0.00000E+00  0.12273E+00  0.15250E-01  0.00000E+00  0.13258E+00  0.15239E-01  0.00000E+00  0.14244E+00  0.15228E-01  0.00000E+00  0.15231E+00  0.15216E-01  0.00000E+00  0.16218E+00  0.15204E-01  0.00000E+00  0.17206E+00
        0.15192E-01  0.00000E+00  0.18195E+00  0.15179E-01  0.00000E+00  0.19185E+00  0.15166E-01  0.00000E+00  0.20175E+00  0.15153E-01  0.00000E+00  0.21166E+00  0.15139E-01  0.00000E+00  0.22158E+00  0.15125E-01  0.00000E+00  0.23151E+00
        0.15112E-01  0.00000E+00  0.24145E+00  0.15098E-01  0.00000E+00  0.25139E+00  0.15087E-01  0.00000E+00  0.26135E+00  0.15071E-01  0.00000E+00  0.27130E+00  0.15067E-01  0.00000E+00  0.28127E+00  0.15057E-01  0.00000E+00  0.29125E+00
        0.25556E-01  0.00000E+00  0.49719E-02  0.25465E-01  0.00000E+00  0.14871E-01  0.25468E-01  0.00000E+00  0.24585E-01  0.25454E-01  0.00000E+00  0.34419E-01  0.25447E-01  0.00000E+00  0.44209E-01  0.25438E-01  0.00000E+00  0.54014E-01
        0.25425E-01  0.00000E+00  0.63825E-01  0.25412E-01  0.00000E+00  0.73635E-01  0.25399E-01  0.00000E+00  0.83455E-01  0.25384E-01  0.00000E+00  0.93277E-01  0.25369E-01  0.00000E+00  0.10311E+00  0.25353E-01  0.00000E+00  0.11294E+00
        0.25336E-01  0.00000E+00  0.12278E+00  0.25319E-01  0.00000E+00  0.13263E+00  0.25302E-01  0.00000E+00  0.14248E+00  0.25284E-01  0.00000E+00  0.15235E+00  0.25266E-01  0.00000E+00  0.16222E+00  0.25247E-01  0.00000E+00  0.17209E+00
        0.25228E-01  0.00000E+00  0.18198E+00  0.25208E-01  0.00000E+00  0.19187E+00  0.25189E-01  0.00000E+00  0.20177E+00  0.25169E-01  0.00000E+00  0.21168E+00  0.25150E-01  0.00000E+00  0.22160E+00  0.25131E-01  0.00000E+00  0.23153E+00
        0.25113E-01  0.00000E+00  0.24147E+00  0.25097E-01  0.00000E+00  0.25141E+00  0.25084E-01  0.00000E+00  0.26137E+00  0.25071E-01  0.00000E+00  0.27132E+00  0.25071E-01  0.00000E+00  0.28130E+00  0.25072E-01  0.00000E+00  0.29125E+00
        0.35742E-01  0.00000E+00  0.49182E-02  0.35721E-01  0.00000E+00  0.14866E-01  0.35713E-01  0.00000E+00  0.24587E-01  0.35706E-01  0.00000E+00  0.34434E-01  0.35696E-01  0.00000E+00  0.44227E-01  0.35684E-01  0.00000E+00  0.54034E-01
        0.35669E-01  0.00000E+00  0.63844E-01  0.35652E-01  0.00000E+00  0.73654E-01  0.35634E-01  0.00000E+00  0.83471E-01  0.35614E-01  0.00000E+00  0.93290E-01  0.35593E-01  0.00000E+00  0.10312E+00  0.35571E-01  0.00000E+00  0.11295E+00
        0.35549E-01  0.00000E+00  0.12279E+00  0.35525E-01  0.00000E+00  0.13263E+00  0.35500E-01  0.00000E+00  0.14248E+00  0.35475E-01  0.00000E+00  0.15234E+00  0.35449E-01  0.00000E+00  0.16221E+00  0.35422E-01  0.00000E+00  0.17208E+00
        0.35394E-01  0.00000E+00  0.18196E+00  0.35366E-01  0.00000E+00  0.19185E+00  0.35337E-01  0.00000E+00  0.20175E+00  0.35308E-01  0.00000E+00  0.21166E+00  0.35278E-01  0.00000E+00  0.22158E+00  0.35249E-01  0.00000E+00  0.23150E+00
        0.35220E-01  0.00000E+00  0.24144E+00  0.35191E-01  0.00000E+00  0.25138E+00  0.35166E-01  0.00000E+00  0.26133E+00  0.35142E-01  0.00000E+00  0.27128E+00  0.35123E-01  0.00000E+00  0.28125E+00  0.35108E-01  0.00000E+00  0.29121E+00
        0.45904E-01  0.00000E+00  0.49287E-02  0.45900E-01  0.00000E+00  0.14864E-01  0.45896E-01  0.00000E+00  0.24588E-01  0.45891E-01  0.00000E+00  0.34434E-01  0.45882E-01  0.00000E+00  0.44228E-01  0.45868E-01  0.00000E+00  0.54036E-01
        0.45850E-01  0.00000E+00  0.63846E-01  0.45829E-01  0.00000E+00  0.73654E-01  0.45805E-01  0.00000E+00  0.83470E-01  0.45780E-01  0.00000E+00  0.93288E-01  0.45753E-01  0.00000E+00  0.10311E+00  0.45724E-01  0.00000E+00  0.11294E+00
        0.45694E-01  0.00000E+00  0.12278E+00  0.45663E-01  0.00000E+00  0.13262E+00  0.45630E-01  0.00000E+00  0.14247E+00  0.45596E-01  0.00000E+00  0.15232E+00  0.45560E-01  0.00000E+00  0.16219E+00  0.45524E-01  0.00000E+00  0.17206E+00
        0.45487E-01  0.00000E+00  0.18194E+00  0.45449E-01  0.00000E+00  0.19183E+00  0.45411E-01  0.00000E+00  0.20173E+00  0.45372E-01  0.00000E+00  0.21163E+00  0.45332E-01  0.00000E+00  0.22155E+00  0.45294E-01  0.00000E+00  0.23147E+00
        0.45256E-01  0.00000E+00  0.24141E+00  0.45220E-01  0.00000E+00  0.25135E+00  0.45188E-01  0.00000E+00  0.26130E+00  0.45160E-01  0.00000E+00  0.27126E+00  0.45143E-01  0.00000E+00  0.28123E+00  0.45135E-01  0.00000E+00  0.29118E+00
        0.56078E-01  0.00000E+00  0.49234E-02  0.56093E-01  0.00000E+00  0.14861E-01  0.56099E-01  0.00000E+00  0.24586E-01  0.56097E-01  0.00000E+00  0.34431E-01  0.56088E-01  0.00000E+00  0.44224E-01  0.56074E-01  0.00000E+00  0.54030E-01
        0.56054E-01  0.00000E+00  0.63838E-01  0.56030E-01  0.00000E+00  0.73645E-01  0.56003E-01  0.00000E+00  0.83458E-01  0.55974E-01  0.00000E+00  0.93274E-01  0.55942E-01  0.00000E+00  0.10310E+00  0.55908E-01  0.00000E+00  0.11292E+00
        0.55871E-01  0.00000E+00  0.12276E+00  0.55834E-01  0.00000E+00  0.13260E+00  0.55794E-01  0.00000E+00  0.14244E+00  0.55753E-01  0.00000E+00  0.15230E+00  0.55710E-01  0.00000E+00  0.16216E+00  0.55667E-01  0.00000E+00  0.17203E+00
        0.55622E-01  0.00000E+00  0.18190E+00  0.55576E-01  0.00000E+00  0.19179E+00  0.55529E-01  0.00000E+00  0.20169E+00  0.55481E-01  0.00000E+00  0.21159E+00  0.55433E-01  0.00000E+00  0.22150E+00  0.55386E-01  0.00000E+00  0.23143E+00
        0.55339E-01  0.00000E+00  0.24136E+00  0.55294E-01  0.00000E+00  0.25130E+00  0.55252E-01  0.00000E+00  0.26125E+00  0.55215E-01  0.00000E+00  0.27120E+00  0.55186E-01  0.00000E+00  0.28117E+00  0.55169E-01  0.00000E+00  0.29113E+00
        0.66256E-01  0.00000E+00  0.49212E-02  0.66286E-01  0.00000E+00  0.14855E-01  0.66300E-01  0.00000E+00  0.24578E-01  0.66301E-01  0.00000E+00  0.34420E-01  0.66293E-01  0.00000E+00  0.44211E-01  0.66278E-01  0.00000E+00  0.54014E-01
        0.66256E-01  0.00000E+00  0.63820E-01  0.66229E-01  0.00000E+00  0.73624E-01  0.66198E-01  0.00000E+00  0.83435E-01  0.66163E-01  0.00000E+00  0.93248E-01  0.66125E-01  0.00000E+00  0.10307E+00  0.66085E-01  0.00000E+00  0.11289E+00
        0.66042E-01  0.00000E+00  0.12272E+00  0.65996E-01  0.00000E+00  0.13256E+00  0.65949E-01  0.00000E+00  0.14240E+00  0.65899E-01  0.00000E+00  0.15225E+00  0.65848E-01  0.00000E+00  0.16211E+00  0.65795E-01  0.00000E+00  0.17198E+00
        0.65740E-01  0.00000E+00  0.18186E+00  0.65684E-01  0.00000E+00  0.19174E+00  0.65627E-01  0.00000E+00  0.20164E+00  0.65568E-01  0.00000E+00  0.21154E+00  0.65510E-01  0.00000E+00  0.22145E+00  0.65452E-01  0.00000E+00  0.23137E+00
        0.65395E-01  0.00000E+00  0.24131E+00  0.65340E-01  0.00000E+00  0.25124E+00  0.65290E-01  0.00000E+00  0.26120E+00  0.65247E-01  0.00000E+00  0.27115E+00  0.65215E-01  0.00000E+00  0.28112E+00  0.65200E-01  0.00000E+00  0.29107E+00
        0.76441E-01  0.00000E+00  0.49188E-02  0.76480E-01  0.00000E+00  0.14849E-01  0.76502E-01  0.00000E+00  0.24568E-01  0.76506E-01  0.00000E+00  0.34408E-01  0.76500E-01  0.00000E+00  0.44195E-01  0.76483E-01  0.00000E+00  0.53995E-01
        0.76460E-01  0.00000E+00  0.63798E-01  0.76430E-01  0.00000E+00  0.73599E-01  0.76395E-01  0.00000E+00  0.83407E-01  0.76355E-01  0.00000E+00  0.93217E-01  0.76312E-01  0.00000E+00  0.10303E+00  0.76266E-01  0.00000E+00  0.11285E+00
        0.76216E-01  0.00000E+00  0.12268E+00  0.76164E-01  0.00000E+00  0.13252E+00  0.76109E-01  0.00000E+00  0.14236E+00  0.76052E-01  0.00000E+00  0.15221E+00  0.75993E-01  0.00000E+00  0.16206E+00  0.75931E-01  0.00000E+00  0.17193E+00
        0.75868E-01  0.00000E+00  0.18180E+00  0.75803E-01  0.00000E+00  0.19168E+00  0.75737E-01  0.00000E+00  0.20158E+00  0.75670E-01  0.00000E+00  0.21148E+00  0.75602E-01  0.00000E+00  0.22139E+00  0.75535E-01  0.00000E+00  0.23131E+00
        0.75468E-01  0.00000E+00  0.24124E+00  0.75405E-01  0.00000E+00  0.25118E+00  0.75346E-01  0.00000E+00  0.26113E+00  0.75295E-01  0.00000E+00  0.27108E+00  0.75255E-01  0.00000E+00  0.28105E+00  0.75234E-01  0.00000E+00  0.29100E+00
[...]
<PointData>
      <DataArray type="Float32" Name="Velocity vectors"  NumberOfComponents="3"  format="ascii" >
          0.28140E-02  0.00000E+00 -0.30737E-02  0.17856E-02  0.00000E+00 -0.69349E-02  0.13007E-02  0.00000E+00 -0.10653E-01  0.14858E-02  0.00000E+00 -0.14814E-01  0.14206E-02  0.00000E+00 -0.18785E-01  0.14245E-02  0.00000E+00 -0.22970E-01
          0.13415E-02  0.00000E+00 -0.27044E-01  0.12839E-02  0.00000E+00 -0.31143E-01  0.11933E-02  0.00000E+00 -0.35140E-01  0.11182E-02  0.00000E+00 -0.39091E-01  0.10316E-02  0.00000E+00 -0.42925E-01  0.95456E-03  0.00000E+00 -0.46666E-01
          0.87984E-03  0.00000E+00 -0.50275E-01  0.81013E-03  0.00000E+00 -0.53754E-01  0.74674E-03  0.00000E+00 -0.57079E-01  0.68778E-03  0.00000E+00 -0.60249E-01  0.63369E-03  0.00000E+00 -0.63243E-01  0.58352E-03  0.00000E+00 -0.66063E-01
          0.53778E-03  0.00000E+00 -0.68689E-01  0.49404E-03  0.00000E+00 -0.71130E-01  0.45570E-03  0.00000E+00 -0.73368E-01  0.41694E-03  0.00000E+00 -0.75418E-01  0.38127E-03  0.00000E+00 -0.77267E-01  0.34683E-03  0.00000E+00 -0.78938E-01
          0.31730E-03  0.00000E+00 -0.80421E-01  0.28264E-03  0.00000E+00 -0.81766E-01  0.29683E-03  0.00000E+00 -0.82902E-01  0.18842E-03  0.00000E+00 -0.84082E-01  0.43360E-03  0.00000E+00 -0.84550E-01 -0.75566E-05  0.00000E+00 -0.86943E-01
          0.61883E-02  0.00000E+00 -0.15521E-02  0.50901E-02  0.00000E+00 -0.54073E-02  0.45644E-02  0.00000E+00 -0.99967E-02  0.46186E-02  0.00000E+00 -0.14820E-01  0.44940E-02  0.00000E+00 -0.18878E-01  0.44662E-02  0.00000E+00 -0.23341E-01
          0.43325E-02  0.00000E+00 -0.27521E-01  0.41965E-02  0.00000E+00 -0.31812E-01  0.40253E-02  0.00000E+00 -0.35960E-01  0.38478E-02  0.00000E+00 -0.40100E-01  0.36595E-02  0.00000E+00 -0.44119E-01  0.34717E-02  0.00000E+00 -0.48059E-01
          0.32842E-02  0.00000E+00 -0.51869E-01  0.31005E-02  0.00000E+00 -0.55552E-01  0.29229E-02  0.00000E+00 -0.59077E-01  0.27499E-02  0.00000E+00 -0.62447E-01  0.25832E-02  0.00000E+00 -0.65630E-01  0.24211E-02  0.00000E+00 -0.68636E-01
          0.22660E-02  0.00000E+00 -0.71431E-01  0.21156E-02  0.00000E+00 -0.74037E-01  0.19720E-02  0.00000E+00 -0.76418E-01  0.18304E-02  0.00000E+00 -0.78609E-01  0.16963E-02  0.00000E+00 -0.80573E-01  0.15661E-02  0.00000E+00 -0.82362E-01
          0.14434E-02  0.00000E+00 -0.83925E-01  0.13364E-02  0.00000E+00 -0.85370E-01  0.12451E-02  0.00000E+00 -0.86549E-01  0.11470E-02  0.00000E+00 -0.87779E-01  0.11478E-02  0.00000E+00 -0.88691E-01  0.84867E-03  0.00000E+00 -0.89565E-01
          0.10089E-01  0.00000E+00 -0.15382E-02  0.89477E-02  0.00000E+00 -0.49929E-02  0.84044E-02  0.00000E+00 -0.93197E-02  0.83049E-02  0.00000E+00 -0.13921E-01  0.81670E-02  0.00000E+00 -0.18021E-01  0.80179E-02  0.00000E+00 -0.22571E-01
          0.78268E-02  0.00000E+00 -0.26782E-01  0.75796E-02  0.00000E+00 -0.31138E-01  0.73074E-02  0.00000E+00 -0.35338E-01  0.70050E-02  0.00000E+00 -0.39546E-01  0.66897E-02  0.00000E+00 -0.43633E-01  0.63640E-02  0.00000E+00 -0.47650E-01
          0.60348E-02  0.00000E+00 -0.51537E-01  0.57061E-02  0.00000E+00 -0.55303E-01  0.53797E-02  0.00000E+00 -0.58908E-01  0.50584E-02  0.00000E+00 -0.62360E-01  0.47410E-02  0.00000E+00 -0.65619E-01  0.44304E-02  0.00000E+00 -0.68703E-01
          0.41240E-02  0.00000E+00 -0.71571E-01  0.38258E-02  0.00000E+00 -0.74252E-01  0.35305E-02  0.00000E+00 -0.76698E-01  0.32455E-02  0.00000E+00 -0.78963E-01  0.29617E-02  0.00000E+00 -0.80980E-01  0.26994E-02  0.00000E+00 -0.82843E-01
          0.24374E-02  0.00000E+00 -0.84441E-01  0.22264E-02  0.00000E+00 -0.85945E-01  0.20320E-02  0.00000E+00 -0.87169E-01  0.18987E-02  0.00000E+00 -0.88357E-01  0.18846E-02  0.00000E+00 -0.89296E-01  0.21377E-02  0.00000E+00 -0.90703E-01
          0.13389E-01  0.00000E+00 -0.16242E-02  0.12387E-01  0.00000E+00 -0.49121E-02  0.12020E-01  0.00000E+00 -0.91071E-02  0.11896E-01  0.00000E+00 -0.13635E-01  0.11748E-01  0.00000E+00 -0.17680E-01  0.11550E-01  0.00000E+00 -0.22177E-01
          0.11285E-01  0.00000E+00 -0.26372E-01  0.10957E-01  0.00000E+00 -0.30723E-01  0.10588E-01  0.00000E+00 -0.34930E-01  0.10180E-01  0.00000E+00 -0.39147E-01  0.97534E-02  0.00000E+00 -0.43251E-01  0.93079E-02  0.00000E+00 -0.47289E-01
          0.88560E-02  0.00000E+00 -0.51201E-01  0.84006E-02  0.00000E+00 -0.54994E-01  0.79451E-02  0.00000E+00 -0.58628E-01  0.74936E-02  0.00000E+00 -0.62112E-01  0.70460E-02  0.00000E+00 -0.65403E-01  0.66046E-02  0.00000E+00 -0.68522E-01
          0.61694E-02  0.00000E+00 -0.71425E-01  0.57418E-02  0.00000E+00 -0.74145E-01  0.53217E-02  0.00000E+00 -0.76629E-01  0.49115E-02  0.00000E+00 -0.78939E-01  0.45114E-02  0.00000E+00 -0.80994E-01  0.41325E-02  0.00000E+00 -0.82909E-01
          0.37736E-02  0.00000E+00 -0.84545E-01  0.34545E-02  0.00000E+00 -0.86104E-01  0.31874E-02  0.00000E+00 -0.87346E-01  0.30131E-02  0.00000E+00 -0.88683E-01  0.28471E-02  0.00000E+00 -0.89510E-01  0.29449E-02  0.00000E+00 -0.90910E-01
          0.16883E-01  0.00000E+00 -0.16032E-02  0.16144E-01  0.00000E+00 -0.49438E-02  0.15842E-01  0.00000E+00 -0.91061E-02  0.15730E-01  0.00000E+00 -0.13598E-01  0.15588E-01  0.00000E+00 -0.17620E-01  0.15362E-01  0.00000E+00 -0.22106E-01
          0.15037E-01  0.00000E+00 -0.26291E-01  0.14644E-01  0.00000E+00 -0.30639E-01  0.14185E-01  0.00000E+00 -0.34854E-01  0.13681E-01  0.00000E+00 -0.39074E-01  0.13142E-01  0.00000E+00 -0.43192E-01  0.12574E-01  0.00000E+00 -0.47243E-01
          0.11992E-01  0.00000E+00 -0.51168E-01  0.11397E-01  0.00000E+00 -0.54980E-01  0.10797E-01  0.00000E+00 -0.58630E-01  0.10195E-01  0.00000E+00 -0.62132E-01  0.95932E-02  0.00000E+00 -0.65443E-01  0.89936E-02  0.00000E+00 -0.68581E-01
          0.83991E-02  0.00000E+00 -0.71505E-01  0.78074E-02  0.00000E+00 -0.74247E-01  0.72244E-02  0.00000E+00 -0.76756E-01  0.66463E-02  0.00000E+00 -0.79092E-01  0.60843E-02  0.00000E+00 -0.81172E-01  0.55366E-02  0.00000E+00 -0.83117E-01
          0.50271E-02  0.00000E+00 -0.84771E-01  0.45607E-02  0.00000E+00 -0.86371E-01  0.41625E-02  0.00000E+00 -0.87592E-01  0.38906E-02  0.00000E+00 -0.88949E-01  0.37631E-02  0.00000E+00 -0.89750E-01  0.37554E-02  0.00000E+00 -0.91259E-01
          0.20361E-01  0.00000E+00 -0.16009E-02  0.19722E-01  0.00000E+00 -0.49588E-02  0.19451E-01  0.00000E+00 -0.91472E-02  0.19362E-01  0.00000E+00 -0.13651E-01  0.19217E-01  0.00000E+00 -0.17687E-01  0.18953E-01  0.00000E+00 -0.22193E-01
          0.18573E-01  0.00000E+00 -0.26395E-01  0.18105E-01  0.00000E+00 -0.30767E-01  0.17559E-01  0.00000E+00 -0.35005E-01  0.16958E-01  0.00000E+00 -0.39244E-01  0.16310E-01  0.00000E+00 -0.43388E-01  0.15627E-01  0.00000E+00 -0.47459E-01
          0.14921E-01  0.00000E+00 -0.51405E-01  0.14198E-01  0.00000E+00 -0.55237E-01  0.13464E-01  0.00000E+00 -0.58907E-01  0.12724E-01  0.00000E+00 -0.62428E-01  0.11981E-01  0.00000E+00 -0.65759E-01  0.11239E-01  0.00000E+00 -0.68917E-01
          0.10499E-01  0.00000E+00 -0.71863E-01  0.97621E-02  0.00000E+00 -0.74627E-01  0.90342E-02  0.00000E+00 -0.77161E-01  0.83144E-02  0.00000E+00 -0.79525E-01  0.76145E-02  0.00000E+00 -0.81635E-01  0.69381E-02  0.00000E+00 -0.83614E-01
          0.63053E-02  0.00000E+00 -0.85296E-01  0.57376E-02  0.00000E+00 -0.86936E-01  0.52600E-02  0.00000E+00 -0.88198E-01  0.49009E-02  0.00000E+00 -0.89586E-01  0.47026E-02  0.00000E+00 -0.90419E-01  0.46471E-02  0.00000E+00 -0.91935E-01
          0.23996E-01  0.00000E+00 -0.16333E-02  0.23461E-01  0.00000E+00 -0.50234E-02  0.23255E-01  0.00000E+00 -0.92461E-02  0.23188E-01  0.00000E+00 -0.13798E-01  0.23047E-01  0.00000E+00 -0.17878E-01  0.22757E-01  0.00000E+00 -0.22434E-01
          0.22327E-01  0.00000E+00 -0.26683E-01  0.21793E-01  0.00000E+00 -0.31097E-01  0.21169E-01  0.00000E+00 -0.35378E-01  0.20475E-01  0.00000E+00 -0.39653E-01  0.19725E-01  0.00000E+00 -0.43833E-01  0.18932E-01  0.00000E+00 -0.47933E-01
          0.18107E-01  0.00000E+00 -0.51908E-01  0.17258E-01  0.00000E+00 -0.55767E-01  0.16391E-01  0.00000E+00 -0.59460E-01  0.15512E-01  0.00000E+00 -0.63004E-01  0.14624E-01  0.00000E+00 -0.66358E-01  0.13732E-01  0.00000E+00 -0.69536E-01
          0.12838E-01  0.00000E+00 -0.72506E-01  0.11942E-01  0.00000E+00 -0.75292E-01  0.11052E-01  0.00000E+00 -0.77851E-01  0.10168E-01  0.00000E+00 -0.80241E-01  0.93024E-02  0.00000E+00 -0.82377E-01  0.84626E-02  0.00000E+00 -0.84384E-01
          0.76711E-02  0.00000E+00 -0.86091E-01  0.69485E-02  0.00000E+00 -0.87749E-01  0.63424E-02  0.00000E+00 -0.89030E-01  0.58905E-02  0.00000E+00 -0.90433E-01  0.56396E-02  0.00000E+00 -0.91269E-01  0.55741E-02  0.00000E+00 -0.92847E-01
          0.27717E-01  0.00000E+00 -0.16626E-02  0.27241E-01  0.00000E+00 -0.51147E-02  0.27091E-01  0.00000E+00 -0.94015E-02  0.27050E-01  0.00000E+00 -0.14023E-01  0.26903E-01  0.00000E+00 -0.18162E-01  0.26577E-01  0.00000E+00 -0.22782E-01
          0.26090E-01  0.00000E+00 -0.27092E-01  0.25483E-01  0.00000E+00 -0.31559E-01  0.24771E-01  0.00000E+00 -0.35896E-01  0.23977E-01  0.00000E+00 -0.40217E-01  0.23118E-01  0.00000E+00 -0.44440E-01  0.22207E-01  0.00000E+00 -0.48578E-01
          0.21254E-01  0.00000E+00 -0.52586E-01  0.20271E-01  0.00000E+00 -0.56474E-01  0.19263E-01  0.00000E+00 -0.60194E-01  0.18237E-01  0.00000E+00 -0.63762E-01  0.17197E-01  0.00000E+00 -0.67139E-01  0.16147E-01  0.00000E+00 -0.70338E-01
          0.15091E-01  0.00000E+00 -0.73331E-01  0.14032E-01  0.00000E+00 -0.76139E-01  0.12976E-01  0.00000E+00 -0.78722E-01  0.11928E-01  0.00000E+00 -0.81135E-01  0.10902E-01  0.00000E+00 -0.83297E-01  0.99105E-02  0.00000E+00 -0.85331E-01
          0.89786E-02  0.00000E+00 -0.87066E-01  0.81353E-02  0.00000E+00 -0.88755E-01  0.74216E-02  0.00000E+00 -0.90063E-01  0.68968E-02  0.00000E+00 -0.91499E-01  0.65992E-02  0.00000E+00 -0.92369E-01  0.65261E-02  0.00000E+00 -0.93956E-01
          0.31568E-01  0.00000E+00 -0.17124E-02  0.31128E-01  0.00000E+00 -0.52286E-02  0.31023E-01  0.00000E+00 -0.95951E-02  0.31003E-01  0.00000E+00 -0.14302E-01  0.30850E-01  0.00000E+00 -0.18517E-01  0.30492E-01  0.00000E+00 -0.23216E-01
          0.29950E-01  0.00000E+00 -0.27602E-01  0.29268E-01  0.00000E+00 -0.32135E-01  0.28469E-01  0.00000E+00 -0.36538E-01  0.27578E-01  0.00000E+00 -0.40914E-01  0.26612E-01  0.00000E+00 -0.45186E-01  0.25586E-01  0.00000E+00 -0.49370E-01
          0.24511E-01  0.00000E+00 -0.53417E-01  0.23399E-01  0.00000E+00 -0.57341E-01  0.22256E-01  0.00000E+00 -0.61094E-01  0.21089E-01  0.00000E+00 -0.64692E-01  0.19903E-01  0.00000E+00 -0.68098E-01  0.18700E-01  0.00000E+00 -0.71324E-01
          0.17486E-01  0.00000E+00 -0.74344E-01  0.16264E-01  0.00000E+00 -0.77179E-01  0.15042E-01  0.00000E+00 -0.79790E-01  0.13826E-01  0.00000E+00 -0.82231E-01  0.12632E-01  0.00000E+00 -0.84420E-01  0.11475E-01  0.00000E+00 -0.86481E-01
          0.10383E-01  0.00000E+00 -0.88241E-01  0.93931E-02  0.00000E+00 -0.89955E-01  0.85520E-02  0.00000E+00 -0.91282E-01  0.79278E-02  0.00000E+00 -0.92736E-01  0.75720E-02  0.00000E+00 -0.93610E-01  0.74904E-02  0.00000E+00 -0.95239E-01
          0.35509E-01  0.00000E+00 -0.17689E-02  0.35094E-01  0.00000E+00 -0.53741E-02  0.35039E-01  0.00000E+00 -0.98353E-02  0.35056E-01  0.00000E+00 -0.14647E-01  0.34904E-01  0.00000E+00 -0.18952E-01  0.34515E-01  0.00000E+00 -0.23740E-01
          0.33918E-01  0.00000E+00 -0.28216E-01  0.33161E-01  0.00000E+00 -0.32821E-01  0.32275E-01  0.00000E+00 -0.37298E-01  0.31282E-01  0.00000E+00 -0.41736E-01  0.30203E-01  0.00000E+00 -0.46065E-01  0.29055E-01  0.00000E+00 -0.50300E-01
          0.27850E-01  0.00000E+00 -0.54392E-01  0.26600E-01  0.00000E+00 -0.58355E-01  0.25310E-01  0.00000E+00 -0.62146E-01  0.23989E-01  0.00000E+00 -0.65777E-01  0.22642E-01  0.00000E+00 -0.69216E-01  0.21271E-01  0.00000E+00 -0.72473E-01
          0.19884E-01  0.00000E+00 -0.75522E-01  0.18485E-01  0.00000E+00 -0.78385E-01  0.17083E-01  0.00000E+00 -0.81023E-01  0.15689E-01  0.00000E+00 -0.83491E-01  0.14318E-01  0.00000E+00 -0.85707E-01  0.12995E-01  0.00000E+00 -0.87793E-01
          0.11748E-01  0.00000E+00 -0.89579E-01  0.10621E-01  0.00000E+00 -0.91319E-01  0.96672E-02  0.00000E+00 -0.92670E-01  0.89661E-02  0.00000E+00 -0.94155E-01  0.85648E-02  0.00000E+00 -0.95053E-01  0.84738E-02  0.00000E+00 -0.96704E-01
          0.39567E-01  0.00000E+00 -0.18421E-02  0.39162E-01  0.00000E+00 -0.55440E-02  0.39151E-01  0.00000E+00 -0.10116E-01  0.39200E-01  0.00000E+00 -0.15043E-01  0.39046E-01  0.00000E+00 -0.19451E-01  0.38624E-01  0.00000E+00 -0.24338E-01
          0.37973E-01  0.00000E+00 -0.28913E-01  0.37141E-01  0.00000E+00 -0.33600E-01  0.36164E-01  0.00000E+00 -0.38157E-01  0.35068E-01  0.00000E+00 -0.42666E-01  0.33874E-01  0.00000E+00 -0.47058E-01  0.32604E-01  0.00000E+00 -0.51350E-01
          0.31266E-01  0.00000E+00 -0.55494E-01  0.29876E-01  0.00000E+00 -0.59503E-01  0.28440E-01  0.00000E+00 -0.63340E-01  0.26965E-01  0.00000E+00 -0.67011E-01  0.25457E-01  0.00000E+00 -0.70490E-01  0.23921E-01  0.00000E+00 -0.73784E-01
          0.22363E-01  0.00000E+00 -0.76869E-01  0.20789E-01  0.00000E+00 -0.79768E-01  0.19209E-01  0.00000E+00 -0.82438E-01  0.17637E-01  0.00000E+00 -0.84938E-01  0.16090E-01  0.00000E+00 -0.87183E-01  0.14595E-01  0.00000E+00 -0.89298E-01
          0.13185E-01  0.00000E+00 -0.91108E-01  0.11910E-01  0.00000E+00 -0.92874E-01  0.10828E-01  0.00000E+00 -0.94241E-01  0.10030E-01  0.00000E+00 -0.95750E-01  0.95746E-02  0.00000E+00 -0.96653E-01  0.94739E-02  0.00000E+00 -0.98349E-01
          0.43722E-01  0.00000E+00 -0.19184E-02  0.43321E-01  0.00000E+00 -0.57338E-02  0.43358E-01  0.00000E+00 -0.10430E-01  0.43450E-01  0.00000E+00 -0.15487E-01  0.43309E-01  0.00000E+00 -0.20016E-01  0.42865E-01  0.00000E+00 -0.25012E-01
          0.42168E-01  0.00000E+00 -0.29695E-01  0.41267E-01  0.00000E+00 -0.34476E-01  0.40203E-01  0.00000E+00 -0.39122E-01  0.39006E-01  0.00000E+00 -0.43710E-01  0.37698E-01  0.00000E+00 -0.48171E-01  0.36301E-01  0.00000E+00 -0.52528E-01
          0.34826E-01  0.00000E+00 -0.56732E-01  0.33290E-01  0.00000E+00 -0.60795E-01  0.31698E-01  0.00000E+00 -0.64685E-01  0.30058E-01  0.00000E+00 -0.68403E-01  0.28378E-01  0.00000E+00 -0.71928E-01  0.26661E-01  0.00000E+00 -0.75266E-01
          0.24917E-01  0.00000E+00 -0.78391E-01  0.23153E-01  0.00000E+00 -0.81328E-01  0.21382E-01  0.00000E+00 -0.84033E-01  0.19618E-01  0.00000E+00 -0.86565E-01  0.17883E-01  0.00000E+00 -0.88839E-01  0.16208E-01  0.00000E+00 -0.90980E-01
          0.14631E-01  0.00000E+00 -0.92814E-01  0.13209E-01  0.00000E+00 -0.94605E-01  0.12004E-01  0.00000E+00 -0.95991E-01  0.11119E-01  0.00000E+00 -0.97529E-01  0.10612E-01  0.00000E+00 -0.98450E-01  0.10499E-01  0.00000E+00 -0.10018E+00
          0.48003E-01  0.00000E+00 -0.19986E-02  0.47598E-01  0.00000E+00 -0.59378E-02  0.47687E-01  0.00000E+00 -0.10776E-01  0.47827E-01  0.00000E+00 -0.15971E-01  0.47704E-01  0.00000E+00 -0.20633E-01  0.47240E-01  0.00000E+00 -0.25747E-01
          0.46497E-01  0.00000E+00 -0.30550E-01  0.45527E-01  0.00000E+00 -0.35434E-01  0.44376E-01  0.00000E+00 -0.40177E-01  0.43077E-01  0.00000E+00 -0.44853E-01  0.41649E-01  0.00000E+00 -0.49395E-01  0.40121E-01  0.00000E+00 -0.53825E-01
          0.38503E-01  0.00000E+00 -0.58098E-01  0.36812E-01  0.00000E+00 -0.62224E-01  0.35056E-01  0.00000E+00 -0.66175E-01  0.33244E-01  0.00000E+00 -0.69949E-01  0.31384E-01  0.00000E+00 -0.73529E-01  0.29482E-01  0.00000E+00 -0.76917E-01
          0.27548E-01  0.00000E+00 -0.80090E-01  0.25591E-01  0.00000E+00 -0.83070E-01  0.23624E-01  0.00000E+00 -0.85815E-01  0.21667E-01  0.00000E+00 -0.88383E-01  0.19742E-01  0.00000E+00 -0.90689E-01  0.17885E-01  0.00000E+00 -0.92859E-01
          0.16136E-01  0.00000E+00 -0.94717E-01  0.14558E-01  0.00000E+00 -0.96532E-01  0.13222E-01  0.00000E+00 -0.97934E-01  0.12238E-01  0.00000E+00 -0.99497E-01  0.11675E-01  0.00000E+00 -0.10043E+00  0.11550E-01  0.00000E+00 -0.10221E+00
          0.52424E-01  0.00000E+00 -0.20742E-02  0.52013E-01  0.00000E+00 -0.61450E-02  0.52162E-01  0.00000E+00 -0.11136E-01  0.52358E-01  0.00000E+00 -0.16482E-01  0.52260E-01  0.00000E+00 -0.21293E-01  0.51785E-01  0.00000E+00 -0.26539E-01
          0.51005E-01  0.00000E+00 -0.31471E-01  0.49973E-01  0.00000E+00 -0.36473E-01  0.48738E-01  0.00000E+00 -0.41323E-01  0.47337E-01  0.00000E+00 -0.46101E-01  0.45790E-01  0.00000E+00 -0.50735E-01  0.44128E-01  0.00000E+00 -0.55249E-01
          0.42362E-01  0.00000E+00 -0.59604E-01  0.40510E-01  0.00000E+00 -0.63803E-01  0.38582E-01  0.00000E+00 -0.67826E-01  0.36588E-01  0.00000E+00 -0.71665E-01  0.34538E-01  0.00000E+00 -0.75307E-01  0.32438E-01  0.00000E+00 -0.78753E-01
          0.30301E-01  0.00000E+00 -0.81978E-01  0.28138E-01  0.00000E+00 -0.85006E-01  0.25963E-01  0.00000E+00 -0.87793E-01  0.23800E-01  0.00000E+00 -0.90398E-01  0.21673E-01  0.00000E+00 -0.92735E-01  0.19622E-01  0.00000E+00 -0.94934E-01
          0.17692E-01  0.00000E+00 -0.96813E-01  0.15953E-01  0.00000E+00 -0.98653E-01  0.14481E-01  0.00000E+00 -0.10007E+00  0.13396E-01  0.00000E+00 -0.10166E+00  0.12774E-01  0.00000E+00 -0.10260E+00  0.12633E-01  0.00000E+00 -0.10443E+00
          0.57022E-01  0.00000E+00 -0.21405E-02  0.56605E-01  0.00000E+00 -0.63511E-02  0.56821E-01  0.00000E+00 -0.11513E-01  0.57077E-01  0.00000E+00 -0.17018E-01  0.57009E-01  0.00000E+00 -0.21991E-01  0.56526E-01  0.00000E+00 -0.27380E-01
          0.55709E-01  0.00000E+00 -0.32453E-01  0.54614E-01  0.00000E+00 -0.37587E-01  0.53292E-01  0.00000E+00 -0.42557E-01  0.51785E-01  0.00000E+00 -0.47448E-01  0.50113E-01  0.00000E+00 -0.52189E-01  0.48308E-01  0.00000E+00 -0.56800E-01
          0.46385E-01  0.00000E+00 -0.61249E-01  0.44361E-01  0.00000E+00 -0.65533E-01  0.42251E-01  0.00000E+00 -0.69638E-01  0.40064E-01  0.00000E+00 -0.73553E-01  0.37812E-01  0.00000E+00 -0.77265E-01  0.35505E-01  0.00000E+00 -0.80776E-01
          0.33156E-01  0.00000E+00 -0.84059E-01  0.30778E-01  0.00000E+00 -0.87140E-01  0.28389E-01  0.00000E+00 -0.89973E-01  0.26013E-01  0.00000E+00 -0.92618E-01  0.23678E-01  0.00000E+00 -0.94989E-01  0.21428E-01  0.00000E+00 -0.97217E-01
          0.19311E-01  0.00000E+00 -0.99119E-01  0.17403E-01  0.00000E+00 -0.10098E+00  0.15787E-01  0.00000E+00 -0.10242E+00  0.14594E-01  0.00000E+00 -0.10403E+00  0.13907E-01  0.00000E+00 -0.10498E+00  0.13748E-01  0.00000E+00 -0.10687E+00
          0.61836E-01  0.00000E+00 -0.21970E-02  0.61419E-01  0.00000E+00 -0.65501E-02  0.61711E-01  0.00000E+00 -0.11896E-01  0.62029E-01  0.00000E+00 -0.17569E-01  0.61993E-01  0.00000E+00 -0.22717E-01  0.61501E-01  0.00000E+00 -0.28267E-01
          0.60646E-01  0.00000E+00 -0.33492E-01  0.59488E-01  0.00000E+00 -0.38774E-01  0.58076E-01  0.00000E+00 -0.43880E-01  0.56459E-01  0.00000E+00 -0.48898E-01  0.54656E-01  0.00000E+00 -0.53764E-01  0.52702E-01  0.00000E+00 -0.58485E-01
          0.50614E-01  0.00000E+00 -0.63045E-01  0.48411E-01  0.00000E+00 -0.67426E-01  0.46108E-01  0.00000E+00 -0.71626E-01  0.43719E-01  0.00000E+00 -0.75627E-01  0.41256E-01  0.00000E+00 -0.79419E-01  0.38731E-01  0.00000E+00 -0.83001E-01
          0.36158E-01  0.00000E+00 -0.86349E-01  0.33554E-01  0.00000E+00 -0.89486E-01  0.30939E-01  0.00000E+00 -0.92368E-01  0.28336E-01  0.00000E+00 -0.95054E-01  0.25781E-01  0.00000E+00 -0.97459E-01  0.23319E-01  0.00000E+00 -0.99716E-01
          0.21003E-01  0.00000E+00 -0.10164E+00  0.18917E-01  0.00000E+00 -0.10353E+00  0.17149E-01  0.00000E+00 -0.10497E+00  0.15841E-01  0.00000E+00 -0.10662E+00  0.15083E-01  0.00000E+00 -0.10758E+00  0.14902E-01  0.00000E+00 -0.10952E+00
          0.66907E-01  0.00000E+00 -0.22429E-02  0.66505E-01  0.00000E+00 -0.67428E-02  0.66878E-01  0.00000E+00 -0.12288E-01  0.67255E-01  0.00000E+00 -0.18142E-01  0.67244E-01  0.00000E+00 -0.23477E-01  0.66740E-01  0.00000E+00 -0.29203E-01