<?xml version="1.0"?>
<VTKFile type="UnstructuredGrid" version="0.1" byte_order="LittleEndian" compressor="vtkZLibDataCompressor">
<UnstructuredGrid>
  <Piece NumberOfPoints="1800"        NumberOfCells="1"      >
    <Points>
      <DataArray type="Float32" NumberOfComponents="3" format="ascii" >
        0.65877E-02  0.00000E+00  0.37010E-02  0.57844E-02  0.00000E+00  0.12643E-01  0.56588E-02  0.00000E+00  0.21208E-01  0.57108E-02  0.00000E+00  0.29879E-01  0.56957E-02  0.00000E+00  0.38519E-01  0.56895E-02  0.00000E+00  0.47176E-01
        0.56743E-02  0.00000E+00  0.55847E-01  0.56552E-02  0.00000E+00  0.64544E-01  0.56333E-02  0.00000E+00  0.73271E-01  0.56091E-02  0.00000E+00  0.82033E-01  0.55836E-02  0.00000E+00  0.90833E-01  0.55572E-02  0.00000E+00  0.99674E-01
        0.55303E-02  0.00000E+00  0.10856E+00  0.55033E-02  0.00000E+00  0.11748E+00  0.54763E-02  0.00000E+00  0.12646E+00  0.54496E-02  0.00000E+00  0.13547E+00  0.54233E-02  0.00000E+00  0.14453E+00  0.53977E-02  0.00000E+00  0.15363E+00
        0.53728E-02  0.00000E+00  0.16278E+00  0.53491E-02  0.00000E+00  0.17197E+00  0.53262E-02  0.00000E+00  0.18120E+00  0.53049E-02  0.00000E+00  0.19047E+00  0.52851E-02  0.00000E+00  0.19977E+00  0.52669E-02  0.00000E+00  0.20911E+00
        0.52518E-02  0.00000E+00  0.21848E+00  0.52364E-02  0.00000E+00  0.22788E+00  0.52300E-02  0.00000E+00  0.23731E+00  0.52108E-02  0.00000E+00  0.24672E+00  0.52277E-02  0.00000E+00  0.25627E+00  0.51180E-02  0.00000E+00  0.26543E+00
        0.18302E-01  0.00000E+00  0.44541E-02  0.17304E-01  0.00000E+00  0.13310E-01  0.17168E-01  0.00000E+00  0.21718E-01  0.17209E-01  0.00000E+00  0.30245E-01  0.17154E-01  0.00000E+00  0.38818E-01  0.17123E-01  0.00000E+00  0.47414E-01
        0.17071E-01  0.00000E+00  0.56045E-01  0.17013E-01  0.00000E+00  0.64715E-01  0.16950E-01  0.00000E+00  0.73420E-01  0.16883E-01  0.00000E+00  0.82165E-01  0.16813E-01  0.00000E+00  0.90951E-01  0.16740E-01  0.00000E+00  0.99777E-01
        0.16667E-01  0.00000E+00  0.10865E+00  0.16593E-01  0.00000E+00  0.11756E+00  0.16518E-01  0.00000E+00  0.12651E+00  0.16445E-01  0.00000E+00  0.13551E+00  0.16372E-01  0.00000E+00  0.14455E+00  0.16301E-01  0.00000E+00  0.15364E+00
        0.16232E-01  0.00000E+00  0.16277E+00  0.16165E-01  0.00000E+00  0.17194E+00  0.16101E-01  0.00000E+00  0.18115E+00  0.16040E-01  0.00000E+00  0.19040E+00  0.15983E-01  0.00000E+00  0.19969E+00  0.15930E-01  0.00000E+00  0.20901E+00
        0.15883E-01  0.00000E+00  0.21836E+00  0.15839E-01  0.00000E+00  0.22774E+00  0.15807E-01  0.00000E+00  0.23717E+00  0.15763E-01  0.00000E+00  0.24654E+00  0.15746E-01  0.00000E+00  0.25610E+00  0.15674E-01  0.00000E+00  0.26525E+00
        0.29686E-01  0.00000E+00  0.45265E-02  0.28924E-01  0.00000E+00  0.13509E-01  0.28793E-01  0.00000E+00  0.21975E-01  0.28769E-01  0.00000E+00  0.30550E-01  0.28692E-01  0.00000E+00  0.39151E-01  0.28614E-01  0.00000E+00  0.47758E-01
        0.28519E-01  0.00000E+00  0.56397E-01  0.28415E-01  0.00000E+00  0.65070E-01  0.28304E-01  0.00000E+00  0.73775E-01  0.28187E-01  0.00000E+00  0.82518E-01  0.28065E-01  0.00000E+00  0.91300E-01  0.27941E-01  0.00000E+00  0.10012E+00
        0.27816E-01  0.00000E+00  0.10898E+00  0.27689E-01  0.00000E+00  0.11789E+00  0.27563E-01  0.00000E+00  0.12683E+00  0.27438E-01  0.00000E+00  0.13582E+00  0.27314E-01  0.00000E+00  0.14485E+00  0.27193E-01  0.00000E+00  0.15392E+00
        0.27076E-01  0.00000E+00  0.16303E+00  0.26962E-01  0.00000E+00  0.17219E+00  0.26853E-01  0.00000E+00  0.18138E+00  0.26750E-01  0.00000E+00  0.19061E+00  0.26653E-01  0.00000E+00  0.19988E+00  0.26565E-01  0.00000E+00  0.20919E+00
        0.26483E-01  0.00000E+00  0.21853E+00  0.26414E-01  0.00000E+00  0.22789E+00  0.26353E-01  0.00000E+00  0.23731E+00  0.26302E-01  0.00000E+00  0.24667E+00  0.26269E-01  0.00000E+00  0.25624E+00  0.26250E-01  0.00000E+00  0.26533E+00
        0.41090E-01  0.00000E+00  0.44966E-02  0.40599E-01  0.00000E+00  0.13523E-01  0.40467E-01  0.00000E+00  0.22030E-01  0.40428E-01  0.00000E+00  0.30647E-01  0.40335E-01  0.00000E+00  0.39274E-01  0.40228E-01  0.00000E+00  0.47902E-01
        0.40099E-01  0.00000E+00  0.56556E-01  0.39954E-01  0.00000E+00  0.65239E-01  0.39799E-01  0.00000E+00  0.73950E-01  0.39636E-01  0.00000E+00  0.82696E-01  0.39466E-01  0.00000E+00  0.91478E-01  0.39293E-01  0.00000E+00  0.10030E+00
        0.39118E-01  0.00000E+00  0.10915E+00  0.38941E-01  0.00000E+00  0.11805E+00  0.38764E-01  0.00000E+00  0.12699E+00  0.38589E-01  0.00000E+00  0.13597E+00  0.38416E-01  0.00000E+00  0.14499E+00  0.38246E-01  0.00000E+00  0.15405E+00
        0.38080E-01  0.00000E+00  0.16315E+00  0.37919E-01  0.00000E+00  0.17229E+00  0.37765E-01  0.00000E+00  0.18147E+00  0.37619E-01  0.00000E+00  0.19068E+00  0.37481E-01  0.00000E+00  0.19994E+00  0.37355E-01  0.00000E+00  0.20923E+00
        0.37240E-01  0.00000E+00  0.21855E+00  0.37139E-01  0.00000E+00  0.22789E+00  0.37052E-01  0.00000E+00  0.23729E+00  0.36980E-01  0.00000E+00  0.24663E+00  0.36929E-01  0.00000E+00  0.25615E+00  0.36882E-01  0.00000E+00  0.26526E+00
        0.52483E-01  0.00000E+00  0.44999E-02  0.52197E-01  0.00000E+00  0.13527E-01  0.52088E-01  0.00000E+00  0.22049E-01  0.52029E-01  0.00000E+00  0.30673E-01  0.51924E-01  0.00000E+00  0.39306E-01  0.51791E-01  0.00000E+00  0.47943E-01
        0.51630E-01  0.00000E+00  0.56604E-01  0.51447E-01  0.00000E+00  0.65292E-01  0.51250E-01  0.00000E+00  0.74008E-01  0.51041E-01  0.00000E+00  0.82757E-01  0.50825E-01  0.00000E+00  0.91539E-01  0.50603E-01  0.00000E+00  0.10036E+00
        0.50377E-01  0.00000E+00  0.10921E+00  0.50150E-01  0.00000E+00  0.11811E+00  0.49923E-01  0.00000E+00  0.12704E+00  0.49697E-01  0.00000E+00  0.13601E+00  0.49473E-01  0.00000E+00  0.14502E+00  0.49253E-01  0.00000E+00  0.15408E+00
        0.49038E-01  0.00000E+00  0.16317E+00  0.48829E-01  0.00000E+00  0.17230E+00  0.48628E-01  0.00000E+00  0.18147E+00  0.48437E-01  0.00000E+00  0.19068E+00  0.48256E-01  0.00000E+00  0.19992E+00  0.48089E-01  0.00000E+00  0.20920E+00
        0.47936E-01  0.00000E+00  0.21851E+00  0.47800E-01  0.00000E+00  0.22784E+00  0.47685E-01  0.00000E+00  0.23723E+00  0.47588E-01  0.00000E+00  0.24657E+00  0.47527E-01  0.00000E+00  0.25610E+00  0.47490E-01  0.00000E+00  0.26517E+00
        0.63893E-01  0.00000E+00  0.44905E-02  0.63782E-01  0.00000E+00  0.13518E-01  0.63701E-01  0.00000E+00  0.22045E-01  0.63630E-01  0.00000E+00  0.30669E-01  0.63512E-01  0.00000E+00  0.39301E-01  0.63354E-01  0.00000E+00  0.47938E-01
        0.63162E-01  0.00000E+00  0.56598E-01  0.62944E-01  0.00000E+00  0.65285E-01  0.62707E-01  0.00000E+00  0.74000E-01  0.62455E-01  0.00000E+00  0.82747E-01  0.62194E-01  0.00000E+00  0.91527E-01  0.61926E-01  0.00000E+00  0.10034E+00
        0.61654E-01  0.00000E+00  0.10920E+00  0.61379E-01  0.00000E+00  0.11809E+00  0.61103E-01  0.00000E+00  0.12701E+00  0.60829E-01  0.00000E+00  0.13598E+00  0.60557E-01  0.00000E+00  0.14499E+00  0.60289E-01  0.00000E+00  0.15403E+00
        0.60027E-01  0.00000E+00  0.16312E+00  0.59772E-01  0.00000E+00  0.17224E+00  0.59527E-01  0.00000E+00  0.18140E+00  0.59293E-01  0.00000E+00  0.19060E+00  0.59072E-01  0.00000E+00  0.19984E+00  0.58867E-01  0.00000E+00  0.20910E+00
        0.58682E-01  0.00000E+00  0.21841E+00  0.58516E-01  0.00000E+00  0.22773E+00  0.58377E-01  0.00000E+00  0.23710E+00  0.58264E-01  0.00000E+00  0.24642E+00  0.58184E-01  0.00000E+00  0.25593E+00  0.58130E-01  0.00000E+00  0.26500E+00
        0.75329E-01  0.00000E+00  0.44802E-02  0.75362E-01  0.00000E+00  0.13500E-01  0.75319E-01  0.00000E+00  0.22025E-01  0.75240E-01  0.00000E+00  0.30642E-01  0.75108E-01  0.00000E+00  0.39266E-01  0.74926E-01  0.00000E+00  0.47895E-01
        0.74703E-01  0.00000E+00  0.56549E-01  0.74449E-01  0.00000E+00  0.65229E-01  0.74172E-01  0.00000E+00  0.73938E-01  0.73878E-01  0.00000E+00  0.82679E-01  0.73572E-01  0.00000E+00  0.91454E-01  0.73258E-01  0.00000E+00  0.10026E+00
        0.72938E-01  0.00000E+00  0.10911E+00  0.72615E-01  0.00000E+00  0.11799E+00  0.72292E-01  0.00000E+00  0.12692E+00  0.71969E-01  0.00000E+00  0.13588E+00  0.71649E-01  0.00000E+00  0.14488E+00  0.71333E-01  0.00000E+00  0.15392E+00
        0.71023E-01  0.00000E+00  0.16299E+00  0.70722E-01  0.00000E+00  0.17211E+00  0.70432E-01  0.00000E+00  0.18126E+00  0.70154E-01  0.00000E+00  0.19046E+00  0.69892E-01  0.00000E+00  0.19968E+00  0.69648E-01  0.00000E+00  0.20894E+00
        0.69425E-01  0.00000E+00  0.21824E+00  0.69226E-01  0.00000E+00  0.22755E+00  0.69058E-01  0.00000E+00  0.23692E+00  0.68919E-01  0.00000E+00  0.24623E+00  0.68826E-01  0.00000E+00  0.25574E+00  0.68767E-01  0.00000E+00  0.26479E+00
        0.86795E-01  0.00000E+00  0.44694E-02  0.86948E-01  0.00000E+00  0.13477E-01  0.86947E-01  0.00000E+00  0.21993E-01  0.86863E-01  0.00000E+00  0.30599E-01  0.86717E-01  0.00000E+00  0.39210E-01  0.86510E-01  0.00000E+00  0.47827E-01
        0.86255E-01  0.00000E+00  0.56469E-01  0.85964E-01  0.00000E+00  0.65139E-01  0.85647E-01  0.00000E+00  0.73837E-01  0.85311E-01  0.00000E+00  0.82569E-01  0.84960E-01  0.00000E+00  0.91335E-01  0.84600E-01  0.00000E+00  0.10014E+00
        0.84233E-01  0.00000E+00  0.10897E+00  0.83863E-01  0.00000E+00  0.11785E+00  0.83491E-01  0.00000E+00  0.12677E+00  0.83120E-01  0.00000E+00  0.13572E+00  0.82751E-01  0.00000E+00  0.14471E+00  0.82388E-01  0.00000E+00  0.15374E+00
        0.82031E-01  0.00000E+00  0.16281E+00  0.81684E-01  0.00000E+00  0.17192E+00  0.81349E-01  0.00000E+00  0.18107E+00  0.81028E-01  0.00000E+00  0.19025E+00  0.80724E-01  0.00000E+00  0.19947E+00  0.80442E-01  0.00000E+00  0.20872E+00
        0.80184E-01  0.00000E+00  0.21801E+00  0.79955E-01  0.00000E+00  0.22731E+00  0.79761E-01  0.00000E+00  0.23667E+00  0.79604E-01  0.00000E+00  0.24598E+00  0.79495E-01  0.00000E+00  0.25547E+00  0.79423E-01  0.00000E+00  0.26451E+00
[...]
<PointData>
      <DataArray type="Float32" Name="Velocity vectors"  NumberOfComponents="3"  format="ascii" >
          0.16266E-01  0.00000E+00 -0.10450E-01  0.62029E-02  0.00000E+00 -0.18696E-01  0.43223E-02  0.00000E+00 -0.27106E-01  0.54834E-02  0.00000E+00 -0.36232E-01  0.52249E-02  0.00000E+00 -0.45513E-01  0.50964E-02  0.00000E+00 -0.54401E-01
          0.49781E-02  0.00000E+00 -0.63188E-01  0.48249E-02  0.00000E+00 -0.71734E-01  0.46690E-02  0.00000E+00 -0.80042E-01  0.45129E-02  0.00000E+00 -0.88145E-01  0.43478E-02  0.00000E+00 -0.96068E-01  0.41750E-02  0.00000E+00 -0.10380E+00
          0.39984E-02  0.00000E+00 -0.11133E+00  0.38223E-02  0.00000E+00 -0.11864E+00  0.36503E-02  0.00000E+00 -0.12573E+00  0.34842E-02  0.00000E+00 -0.13261E+00  0.33262E-02  0.00000E+00 -0.13927E+00  0.31770E-02  0.00000E+00 -0.14573E+00
          0.30378E-02  0.00000E+00 -0.15199E+00  0.29111E-02  0.00000E+00 -0.15807E+00  0.27922E-02  0.00000E+00 -0.16398E+00  0.26934E-02  0.00000E+00 -0.16972E+00  0.25926E-02  0.00000E+00 -0.17534E+00  0.25269E-02  0.00000E+00 -0.18080E+00
          0.24362E-02  0.00000E+00 -0.18621E+00  0.24100E-02  0.00000E+00 -0.19143E+00  0.22945E-02  0.00000E+00 -0.19671E+00  0.23048E-02  0.00000E+00 -0.20179E+00  0.22249E-02  0.00000E+00 -0.20637E+00  0.11050E-02  0.00000E+00 -0.21335E+00
          0.29973E-01  0.00000E+00 -0.43358E-02  0.15967E-01  0.00000E+00 -0.12685E-01  0.15390E-01  0.00000E+00 -0.22078E-01  0.16475E-01  0.00000E+00 -0.32444E-01  0.15693E-01  0.00000E+00 -0.42018E-01  0.15363E-01  0.00000E+00 -0.51390E-01
          0.14779E-01  0.00000E+00 -0.60620E-01  0.14196E-01  0.00000E+00 -0.69441E-01  0.13603E-01  0.00000E+00 -0.77974E-01  0.13108E-01  0.00000E+00 -0.86223E-01  0.12647E-01  0.00000E+00 -0.94230E-01  0.12172E-01  0.00000E+00 -0.10200E+00
          0.11692E-01  0.00000E+00 -0.10955E+00  0.11218E-01  0.00000E+00 -0.11688E+00  0.10756E-01  0.00000E+00 -0.12399E+00  0.10311E-01  0.00000E+00 -0.13090E+00  0.98869E-02  0.00000E+00 -0.13761E+00  0.94864E-02  0.00000E+00 -0.14412E+00
          0.91115E-02  0.00000E+00 -0.15046E+00  0.87667E-02  0.00000E+00 -0.15662E+00  0.84477E-02  0.00000E+00 -0.16263E+00  0.81681E-02  0.00000E+00 -0.16847E+00  0.79057E-02  0.00000E+00 -0.17423E+00  0.77010E-02  0.00000E+00 -0.17977E+00
          0.74918E-02  0.00000E+00 -0.18536E+00  0.73647E-02  0.00000E+00 -0.19064E+00  0.72024E-02  0.00000E+00 -0.19607E+00  0.70894E-02  0.00000E+00 -0.20140E+00  0.69252E-02  0.00000E+00 -0.20575E+00  0.63262E-02  0.00000E+00 -0.21406E+00
          0.41214E-01  0.00000E+00 -0.37703E-02  0.29152E-01  0.00000E+00 -0.11279E-01  0.28442E-01  0.00000E+00 -0.20763E-01  0.28899E-01  0.00000E+00 -0.30701E-01  0.27960E-01  0.00000E+00 -0.39890E-01  0.27162E-01  0.00000E+00 -0.49092E-01
          0.26177E-01  0.00000E+00 -0.58136E-01  0.25173E-01  0.00000E+00 -0.66879E-01  0.24199E-01  0.00000E+00 -0.75443E-01  0.23270E-01  0.00000E+00 -0.83741E-01  0.22372E-01  0.00000E+00 -0.91761E-01  0.21496E-01  0.00000E+00 -0.99523E-01
          0.20643E-01  0.00000E+00 -0.10705E+00  0.19819E-01  0.00000E+00 -0.11436E+00  0.19027E-01  0.00000E+00 -0.12147E+00  0.18273E-01  0.00000E+00 -0.12838E+00  0.17558E-01  0.00000E+00 -0.13511E+00  0.16888E-01  0.00000E+00 -0.14166E+00
          0.16264E-01  0.00000E+00 -0.14804E+00  0.15690E-01  0.00000E+00 -0.15427E+00  0.15169E-01  0.00000E+00 -0.16037E+00  0.14698E-01  0.00000E+00 -0.16629E+00  0.14288E-01  0.00000E+00 -0.17218E+00  0.13923E-01  0.00000E+00 -0.17781E+00
          0.13617E-01  0.00000E+00 -0.18357E+00  0.13349E-01  0.00000E+00 -0.18894E+00  0.13104E-01  0.00000E+00 -0.19450E+00  0.12875E-01  0.00000E+00 -0.19998E+00  0.12604E-01  0.00000E+00 -0.20437E+00  0.12254E-01  0.00000E+00 -0.21298E+00
          0.51105E-01  0.00000E+00 -0.33468E-02  0.42144E-01  0.00000E+00 -0.10509E-01  0.40880E-01  0.00000E+00 -0.20013E-01  0.41060E-01  0.00000E+00 -0.29692E-01  0.39956E-01  0.00000E+00 -0.38805E-01  0.38836E-01  0.00000E+00 -0.47887E-01
          0.37498E-01  0.00000E+00 -0.56826E-01  0.36091E-01  0.00000E+00 -0.65478E-01  0.34699E-01  0.00000E+00 -0.73926E-01  0.33353E-01  0.00000E+00 -0.82124E-01  0.32062E-01  0.00000E+00 -0.90084E-01  0.30818E-01  0.00000E+00 -0.97814E-01
          0.29625E-01  0.00000E+00 -0.10532E+00  0.28482E-01  0.00000E+00 -0.11263E+00  0.27392E-01  0.00000E+00 -0.11973E+00  0.26358E-01  0.00000E+00 -0.12665E+00  0.25382E-01  0.00000E+00 -0.13340E+00  0.24469E-01  0.00000E+00 -0.13999E+00
          0.23620E-01  0.00000E+00 -0.14642E+00  0.22838E-01  0.00000E+00 -0.15270E+00  0.22129E-01  0.00000E+00 -0.15888E+00  0.21487E-01  0.00000E+00 -0.16488E+00  0.20924E-01  0.00000E+00 -0.17088E+00  0.20425E-01  0.00000E+00 -0.17661E+00
          0.20001E-01  0.00000E+00 -0.18249E+00  0.19638E-01  0.00000E+00 -0.18801E+00  0.19334E-01  0.00000E+00 -0.19374E+00  0.19051E-01  0.00000E+00 -0.19938E+00  0.18879E-01  0.00000E+00 -0.20413E+00  0.18576E-01  0.00000E+00 -0.21277E+00
          0.60632E-01  0.00000E+00 -0.33327E-02  0.54891E-01  0.00000E+00 -0.10208E-01  0.53479E-01  0.00000E+00 -0.19635E-01  0.53225E-01  0.00000E+00 -0.29235E-01  0.51989E-01  0.00000E+00 -0.38308E-01  0.50554E-01  0.00000E+00 -0.47307E-01
          0.48877E-01  0.00000E+00 -0.56169E-01  0.47120E-01  0.00000E+00 -0.64744E-01  0.45360E-01  0.00000E+00 -0.73127E-01  0.43631E-01  0.00000E+00 -0.81269E-01  0.41955E-01  0.00000E+00 -0.89176E-01  0.40343E-01  0.00000E+00 -0.96858E-01
          0.38801E-01  0.00000E+00 -0.10433E+00  0.37330E-01  0.00000E+00 -0.11160E+00  0.35933E-01  0.00000E+00 -0.11868E+00  0.34613E-01  0.00000E+00 -0.12559E+00  0.33370E-01  0.00000E+00 -0.13233E+00  0.32209E-01  0.00000E+00 -0.13893E+00
          0.31133E-01  0.00000E+00 -0.14538E+00  0.30143E-01  0.00000E+00 -0.15169E+00  0.29243E-01  0.00000E+00 -0.15792E+00  0.28437E-01  0.00000E+00 -0.16398E+00  0.27720E-01  0.00000E+00 -0.17004E+00  0.27099E-01  0.00000E+00 -0.17585E+00
          0.26559E-01  0.00000E+00 -0.18183E+00  0.26097E-01  0.00000E+00 -0.18743E+00  0.25718E-01  0.00000E+00 -0.19329E+00  0.25352E-01  0.00000E+00 -0.19900E+00  0.25129E-01  0.00000E+00 -0.20381E+00  0.24848E-01  0.00000E+00 -0.21264E+00
          0.70041E-01  0.00000E+00 -0.33222E-02  0.67218E-01  0.00000E+00 -0.10104E-01  0.65899E-01  0.00000E+00 -0.19429E-01  0.65284E-01  0.00000E+00 -0.29000E-01  0.63892E-01  0.00000E+00 -0.38074E-01  0.62134E-01  0.00000E+00 -0.47037E-01
          0.60105E-01  0.00000E+00 -0.55859E-01  0.57967E-01  0.00000E+00 -0.64376E-01  0.55816E-01  0.00000E+00 -0.72692E-01  0.53708E-01  0.00000E+00 -0.80767E-01  0.51670E-01  0.00000E+00 -0.88618E-01  0.49717E-01  0.00000E+00 -0.96256E-01
          0.47853E-01  0.00000E+00 -0.10369E+00  0.46081E-01  0.00000E+00 -0.11094E+00  0.44403E-01  0.00000E+00 -0.11800E+00  0.42821E-01  0.00000E+00 -0.12490E+00  0.41337E-01  0.00000E+00 -0.13164E+00  0.39952E-01  0.00000E+00 -0.13824E+00
          0.38669E-01  0.00000E+00 -0.14471E+00  0.37492E-01  0.00000E+00 -0.15105E+00  0.36421E-01  0.00000E+00 -0.15730E+00  0.35461E-01  0.00000E+00 -0.16341E+00  0.34607E-01  0.00000E+00 -0.16952E+00  0.33860E-01  0.00000E+00 -0.17539E+00
          0.33220E-01  0.00000E+00 -0.18145E+00  0.32667E-01  0.00000E+00 -0.18712E+00  0.32227E-01  0.00000E+00 -0.19309E+00  0.31845E-01  0.00000E+00 -0.19890E+00  0.31631E-01  0.00000E+00 -0.20386E+00  0.31328E-01  0.00000E+00 -0.21281E+00
          0.79608E-01  0.00000E+00 -0.33626E-02  0.79351E-01  0.00000E+00 -0.10105E-01  0.78369E-01  0.00000E+00 -0.19334E-01  0.77425E-01  0.00000E+00 -0.28921E-01  0.75840E-01  0.00000E+00 -0.38006E-01  0.73752E-01  0.00000E+00 -0.46957E-01
          0.71369E-01  0.00000E+00 -0.55760E-01  0.68867E-01  0.00000E+00 -0.64252E-01  0.66348E-01  0.00000E+00 -0.72540E-01  0.63876E-01  0.00000E+00 -0.80588E-01  0.61485E-01  0.00000E+00 -0.88409E-01  0.59192E-01  0.00000E+00 -0.96019E-01
          0.57007E-01  0.00000E+00 -0.10343E+00  0.54934E-01  0.00000E+00 -0.11065E+00  0.52974E-01  0.00000E+00 -0.11770E+00  0.51128E-01  0.00000E+00 -0.12459E+00  0.49399E-01  0.00000E+00 -0.13132E+00  0.47789E-01  0.00000E+00 -0.13793E+00
          0.46300E-01  0.00000E+00 -0.14440E+00  0.44936E-01  0.00000E+00 -0.15076E+00  0.43697E-01  0.00000E+00 -0.15704E+00  0.42589E-01  0.00000E+00 -0.16318E+00  0.41607E-01  0.00000E+00 -0.16934E+00  0.40753E-01  0.00000E+00 -0.17526E+00
          0.40021E-01  0.00000E+00 -0.18139E+00  0.39399E-01  0.00000E+00 -0.18712E+00  0.38900E-01  0.00000E+00 -0.19319E+00  0.38463E-01  0.00000E+00 -0.19906E+00  0.38204E-01  0.00000E+00 -0.20407E+00  0.37843E-01  0.00000E+00 -0.21314E+00
          0.89361E-01  0.00000E+00 -0.33963E-02  0.91336E-01  0.00000E+00 -0.10161E-01  0.90837E-01  0.00000E+00 -0.19319E-01  0.89655E-01  0.00000E+00 -0.28943E-01  0.87860E-01  0.00000E+00 -0.38064E-01  0.85424E-01  0.00000E+00 -0.47040E-01
          0.82664E-01  0.00000E+00 -0.55850E-01  0.79771E-01  0.00000E+00 -0.64331E-01  0.76864E-01  0.00000E+00 -0.72595E-01  0.74020E-01  0.00000E+00 -0.80615E-01  0.71277E-01  0.00000E+00 -0.88409E-01  0.68654E-01  0.00000E+00 -0.95995E-01
          0.66160E-01  0.00000E+00 -0.10339E+00  0.63798E-01  0.00000E+00 -0.11059E+00  0.61569E-01  0.00000E+00 -0.11764E+00  0.59474E-01  0.00000E+00 -0.12452E+00  0.57516E-01  0.00000E+00 -0.13126E+00  0.55695E-01  0.00000E+00 -0.13788E+00
          0.54013E-01  0.00000E+00 -0.14437E+00  0.52474E-01  0.00000E+00 -0.15075E+00  0.51077E-01  0.00000E+00 -0.15706E+00  0.49828E-01  0.00000E+00 -0.16323E+00  0.48720E-01  0.00000E+00 -0.16943E+00  0.47756E-01  0.00000E+00 -0.17540E+00
          0.46928E-01  0.00000E+00 -0.18158E+00  0.46225E-01  0.00000E+00 -0.18736E+00  0.45662E-01  0.00000E+00 -0.19351E+00  0.45184E-01  0.00000E+00 -0.19943E+00  0.44911E-01  0.00000E+00 -0.20454E+00  0.44494E-01  0.00000E+00 -0.21373E+00
          0.99333E-01  0.00000E+00 -0.34216E-02  0.10333E+00  0.00000E+00 -0.10227E-01  0.10340E+00  0.00000E+00 -0.19345E-01  0.10204E+00  0.00000E+00 -0.29036E-01  0.10001E+00  0.00000E+00 -0.38203E-01  0.97205E-01  0.00000E+00 -0.47215E-01
          0.94051E-01  0.00000E+00 -0.56041E-01  0.90760E-01  0.00000E+00 -0.64528E-01  0.87467E-01  0.00000E+00 -0.72789E-01  0.84255E-01  0.00000E+00 -0.80801E-01  0.81162E-01  0.00000E+00 -0.88586E-01  0.78210E-01  0.00000E+00 -0.96162E-01
          0.75406E-01  0.00000E+00 -0.10355E+00  0.72754E-01  0.00000E+00 -0.11075E+00  0.70255E-01  0.00000E+00 -0.11779E+00  0.67909E-01  0.00000E+00 -0.12468E+00  0.65718E-01  0.00000E+00 -0.13143E+00  0.63682E-01  0.00000E+00 -0.13805E+00
          0.61804E-01  0.00000E+00 -0.14456E+00  0.60087E-01  0.00000E+00 -0.15097E+00  0.58531E-01  0.00000E+00 -0.15730E+00  0.57142E-01  0.00000E+00 -0.16351E+00  0.55912E-01  0.00000E+00 -0.16976E+00  0.54847E-01  0.00000E+00 -0.17577E+00
          0.53935E-01  0.00000E+00 -0.18202E+00  0.53167E-01  0.00000E+00 -0.18784E+00  0.52552E-01  0.00000E+00 -0.19408E+00  0.52025E-01  0.00000E+00 -0.20005E+00  0.51711E-01  0.00000E+00 -0.20523E+00  0.51222E-01  0.00000E+00 -0.21451E+00
          0.10947E+00  0.00000E+00 -0.34212E-02  0.11538E+00  0.00000E+00 -0.10282E-01  0.11608E+00  0.00000E+00 -0.19385E-01  0.11460E+00  0.00000E+00 -0.29162E-01  0.11233E+00  0.00000E+00 -0.38395E-01  0.10913E+00  0.00000E+00 -0.47468E-01
          0.10555E+00  0.00000E+00 -0.56333E-01  0.10184E+00  0.00000E+00 -0.64837E-01  0.98138E-01  0.00000E+00 -0.73101E-01  0.94546E-01  0.00000E+00 -0.81109E-01  0.91098E-01  0.00000E+00 -0.88885E-01  0.87817E-01  0.00000E+00 -0.96455E-01
          0.84708E-01  0.00000E+00 -0.10384E+00  0.81772E-01  0.00000E+00 -0.11104E+00  0.79010E-01  0.00000E+00 -0.11809E+00  0.76421E-01  0.00000E+00 -0.12499E+00  0.74005E-01  0.00000E+00 -0.13175E+00  0.71764E-01  0.00000E+00 -0.13840E+00
          0.69699E-01  0.00000E+00 -0.14493E+00  0.67814E-01  0.00000E+00 -0.15137E+00  0.66106E-01  0.00000E+00 -0.15774E+00  0.64583E-01  0.00000E+00 -0.16400E+00  0.63235E-01  0.00000E+00 -0.17029E+00  0.62067E-01  0.00000E+00 -0.17635E+00
          0.61065E-01  0.00000E+00 -0.18266E+00  0.60220E-01  0.00000E+00 -0.18853E+00  0.59540E-01  0.00000E+00 -0.19485E+00  0.58960E-01  0.00000E+00 -0.20086E+00  0.58616E-01  0.00000E+00 -0.20611E+00  0.58062E-01  0.00000E+00 -0.21552E+00
          0.11975E+00  0.00000E+00 -0.34014E-02  0.12757E+00  0.00000E+00 -0.10315E-01  0.12895E+00  0.00000E+00 -0.19426E-01  0.12740E+00  0.00000E+00 -0.29311E-01  0.12486E+00  0.00000E+00 -0.38626E-01  0.12124E+00  0.00000E+00 -0.47769E-01
          0.11721E+00  0.00000E+00 -0.56682E-01  0.11305E+00  0.00000E+00 -0.65213E-01  0.10893E+00  0.00000E+00 -0.73490E-01  0.10495E+00  0.00000E+00 -0.81505E-01  0.10115E+00  0.00000E+00 -0.89283E-01  0.97536E-01  0.00000E+00 -0.96857E-01
          0.94121E-01  0.00000E+00 -0.10424E+00  0.90902E-01  0.00000E+00 -0.11146E+00  0.87877E-01  0.00000E+00 -0.11852E+00  0.85044E-01  0.00000E+00 -0.12543E+00  0.82403E-01  0.00000E+00 -0.13222E+00  0.79954E-01  0.00000E+00 -0.13889E+00
          0.77699E-01  0.00000E+00 -0.14546E+00  0.75641E-01  0.00000E+00 -0.15194E+00  0.73778E-01  0.00000E+00 -0.15835E+00  0.72118E-01  0.00000E+00 -0.16465E+00  0.70650E-01  0.00000E+00 -0.17099E+00  0.69381E-01  0.00000E+00 -0.17710E+00
          0.68293E-01  0.00000E+00 -0.18348E+00  0.67380E-01  0.00000E+00 -0.18940E+00  0.66644E-01  0.00000E+00 -0.19581E+00  0.66014E-01  0.00000E+00 -0.20188E+00  0.65631E-01  0.00000E+00 -0.20721E+00  0.64998E-01  0.00000E+00 -0.21672E+00
          0.13009E+00  0.00000E+00 -0.33568E-02  0.13993E+00  0.00000E+00 -0.10321E-01  0.14205E+00  0.00000E+00 -0.19457E-01  0.14045E+00  0.00000E+00 -0.29470E-01  0.13764E+00  0.00000E+00 -0.38885E-01  0.13357E+00  0.00000E+00 -0.48112E-01
          0.12905E+00  0.00000E+00 -0.57087E-01  0.12441E+00  0.00000E+00 -0.65654E-01  0.11984E+00  0.00000E+00 -0.73951E-01  0.11546E+00  0.00000E+00 -0.81977E-01  0.11129E+00  0.00000E+00 -0.89760E-01  0.10735E+00  0.00000E+00 -0.97340E-01
          0.10363E+00  0.00000E+00 -0.10473E+00  0.10013E+00  0.00000E+00 -0.11196E+00  0.96841E-01  0.00000E+00 -0.11904E+00  0.93767E-01  0.00000E+00 -0.12598E+00  0.90904E-01  0.00000E+00 -0.13279E+00  0.88253E-01  0.00000E+00 -0.13950E+00
          0.85812E-01  0.00000E+00 -0.14611E+00  0.83588E-01  0.00000E+00 -0.15263E+00  0.81577E-01  0.00000E+00 -0.15909E+00  0.79785E-01  0.00000E+00 -0.16544E+00  0.78201E-01  0.00000E+00 -0.17185E+00  0.76832E-01  0.00000E+00 -0.17802E+00
          0.75657E-01  0.00000E+00 -0.18448E+00  0.74669E-01  0.00000E+00 -0.19045E+00  0.73866E-01  0.00000E+00 -0.19695E+00  0.73177E-01  0.00000E+00 -0.20307E+00  0.72756E-01  0.00000E+00 -0.20848E+00  0.72045E-01  0.00000E+00 -0.21812E+00
          0.14046E+00  0.00000E+00 -0.32907E-02  0.15249E+00  0.00000E+00 -0.10297E-01  0.15543E+00  0.00000E+00 -0.19473E-01  0.15382E+00  0.00000E+00 -0.29630E-01  0.15071E+00  0.00000E+00 -0.39161E-01  0.14614E+00  0.00000E+00 -0.48479E-01
          0.14109E+00  0.00000E+00 -0.57523E-01  0.13594E+00  0.00000E+00 -0.66131E-01  0.13091E+00  0.00000E+00 -0.74456E-01  0.12611E+00  0.00000E+00 -0.82500E-01  0.12157E+00  0.00000E+00 -0.90298E-01  0.11729E+00  0.00000E+00 -0.97891E-01
          0.11327E+00  0.00000E+00 -0.10530E+00  0.10948E+00  0.00000E+00 -0.11255E+00  0.10594E+00  0.00000E+00 -0.11965E+00  0.10262E+00  0.00000E+00 -0.12662E+00  0.99541E-01  0.00000E+00 -0.13347E+00  0.96686E-01  0.00000E+00 -0.14022E+00
          0.94060E-01  0.00000E+00 -0.14687E+00  0.91668E-01  0.00000E+00 -0.15344E+00  0.89505E-01  0.00000E+00 -0.15995E+00  0.87579E-01  0.00000E+00 -0.16637E+00  0.85876E-01  0.00000E+00 -0.17284E+00  0.84405E-01  0.00000E+00 -0.17908E+00
          0.83141E-01  0.00000E+00 -0.18562E+00  0.82081E-01  0.00000E+00 -0.19165E+00  0.81217E-01  0.00000E+00 -0.19826E+00  0.80471E-01  0.00000E+00 -0.20443E+00  0.80008E-01  0.00000E+00 -0.20993E+00  0.79210E-01  0.00000E+00 -0.21970E+00
          0.15080E+00  0.00000E+00 -0.32045E-02  0.16529E+00  0.00000E+00 -0.10248E-01  0.16914E+00  0.00000E+00 -0.19472E-01  0.16753E+00  0.00000E+00 -0.29788E-01  0.16411E+00  0.00000E+00 -0.39453E-01  0.15899E+00  0.00000E+00 -0.48868E-01
          0.15336E+00  0.00000E+00 -0.57991E-01  0.14766E+00  0.00000E+00 -0.66643E-01  0.14214E+00  0.00000E+00 -0.75004E-01  0.13691E+00  0.00000E+00 -0.83071E-01  0.13198E+00  0.00000E+00 -0.90889E-01  0.12736E+00  0.00000E+00 -0.98500E-01
          0.12303E+00  0.00000E+00 -0.10593E+00  0.11896E+00  0.00000E+00 -0.11320E+00  0.11516E+00  0.00000E+00 -0.12033E+00  0.11161E+00  0.00000E+00 -0.12733E+00  0.10830E+00  0.00000E+00 -0.13422E+00  0.10525E+00  0.00000E+00 -0.14102E+00
          0.10244E+00  0.00000E+00 -0.14772E+00  0.99882E-01  0.00000E+00 -0.15435E+00  0.97571E-01  0.00000E+00 -0.16093E+00  0.95514E-01  0.00000E+00 -0.16742E+00  0.93696E-01  0.00000E+00 -0.17396E+00  0.92127E-01  0.00000E+00 -0.18028E+00
          0.90775E-01  0.00000E+00 -0.18691E+00  0.89641E-01  0.00000E+00 -0.19301E+00  0.88709E-01  0.00000E+00 -0.19974E+00  0.87901E-01  0.00000E+00 -0.20596E+00  0.87394E-01  0.00000E+00 -0.21156E+00  0.86505E-01  0.00000E+00 -0.22149E+00
          0.16106E+00  0.00000E+00 -0.31067E-02  0.17832E+00  0.00000E+00 -0.10191E-01  0.18322E+00  0.00000E+00 -0.19460E-01  0.18162E+00  0.00000E+00 -0.29943E-01  0.17787E+00  0.00000E+00 -0.39750E-01  0.17213E+00  0.00000E+00 -0.49262E-01
          0.16587E+00  0.00000E+00 -0.58469E-01  0.15960E+00  0.00000E+00 -0.67169E-01  0.15356E+00  0.00000E+00 -0.75571E-01  0.14788E+00  0.00000E+00 -0.83671E-01  0.14256E+00  0.00000E+00 -0.91517E-01  0.13759E+00  0.00000E+00 -0.99156E-01
          0.13295E+00  0.00000E+00 -0.10661E+00  0.12860E+00  0.00000E+00 -0.11392E+00  0.12454E+00  0.00000E+00 -0.12108E+00  0.12075E+00  0.00000E+00 -0.12813E+00  0.11722E+00  0.00000E+00 -0.13506E+00  0.11397E+00  0.00000E+00 -0.14191E+00
          0.11098E+00  0.00000E+00 -0.14867E+00  0.10826E+00  0.00000E+00 -0.15537E+00  0.10580E+00  0.00000E+00 -0.16202E+00  0.10361E+00  0.00000E+00 -0.16858E+00  0.10167E+00  0.00000E+00 -0.17521E+00  0.10000E+00  0.00000E+00 -0.18161E+00
          0.98562E-01  0.00000E+00 -0.18834E+00  0.97352E-01  0.00000E+00 -0.19451E+00  0.96354E-01  0.00000E+00 -0.20137E+00  0.95484E-01  0.00000E+00 -0.20766E+00  0.94932E-01  0.00000E+00 -0.21337E+00  0.93944E-01  0.00000E+00 -0.22346E+00
          0.17124E+00  0.00000E+00 -0.29978E-02  0.19160E+00  0.00000E+00 -0.10132E-01  0.19769E+00  0.00000E+00 -0.19430E-01  0.19611E+00  0.00000E+00 -0.30089E-01  0.19200E+00  0.00000E+00 -0.40045E-01  0.18559E+00  0.00000E+00 -0.49651E-01
          0.17866E+00  0.00000E+00 -0.58947E-01  0.17177E+00  0.00000E+00 -0.67703E-01  0.16520E+00  0.00000E+00 -0.76156E-01  0.15904E+00  0.00000E+00 -0.84300E-01  0.15331E+00  0.00000E+00 -0.92184E-01  0.14799E+00  0.00000E+00 -0.99859E-01
          0.14302E+00  0.00000E+00 -0.10735E+00  0.13839E+00  0.00000E+00 -0.11469E+00  0.13407E+00  0.00000E+00 -0.12190E+00  0.13004E+00  0.00000E+00 -0.12899E+00  0.12630E+00  0.00000E+00 -0.13598E+00  0.12285E+00  0.00000E+00 -0.14289E+00
          0.11968E+00  0.00000E+00 -0.14971E+00  0.11679E+00  0.00000E+00 -0.15649E+00  0.11419E+00  0.00000E+00 -0.16321E+00  0.11187E+00  0.00000E+00 -0.16986E+00  0.10982E+00  0.00000E+00 -0.17658E+00  0.10805E+00  0.00000E+00 -0.18306E+00
          0.10652E+00  0.00000E+00 -0.18991E+00  0.10524E+00  0.00000E+00 -0.19617E+00  0.10417E+00  0.00000E+00 -0.20316E+00  0.10323E+00  0.00000E+00 -0.20952E+00  0.10263E+00  0.00000E+00 -0.21536E+00  0.10154E+00  0.00000E+00 -0.22562E+00
          0.18131E+00  0.00000E+00 -0.28725E-02  0.20509E+00  0.00000E+00 -0.10067E-01  0.21258E+00  0.00000E+00 -0.19368E-01  0.21104E+00  0.00000E+00 -0.30219E-01  0.20652E+00  0.00000E+00 -0.40328E-01  0.19937E+00  0.00000E+00 -0.50029E-01