<?xml version="1.0"?>
<VTKFile type="UnstructuredGrid" version="0.1" byte_order="LittleEndian" compressor="vtkZLibDataCompressor">
<UnstructuredGrid>
  <Piece NumberOfPoints="1800"        NumberOfCells="1"      >
    <Points>
      <DataArray type="Float32" NumberOfComponents="3" format="ascii" >
        0.49663E-02  0.00000E+00  0.49461E-02  0.49694E-02  0.00000E+00  0.15071E-01  0.50147E-02  0.00000E+00  0.24960E-01  0.49823E-02  0.00000E+00  0.34991E-01  0.49927E-02  0.00000E+00  0.44973E-01  0.49880E-02  0.00000E+00  0.54975E-01
        0.49905E-02  0.00000E+00  0.64967E-01  0.49893E-02  0.00000E+00  0.74965E-01  0.49900E-02  0.00000E+00  0.84960E-01  0.49897E-02  0.00000E+00  0.94957E-01  0.49900E-02  0.00000E+00  0.10495E+00  0.49900E-02  0.00000E+00  0.11495E+00
        0.49903E-02  0.00000E+00  0.12495E+00  0.49904E-02  0.00000E+00  0.13494E+00  0.49907E-02  0.00000E+00  0.14494E+00  0.49909E-02  0.00000E+00  0.15494E+00  0.49912E-02  0.00000E+00  0.16494E+00  0.49915E-02  0.00000E+00  0.17494E+00
        0.49919E-02  0.00000E+00  0.18493E+00  0.49922E-02  0.00000E+00  0.19493E+00  0.49926E-02  0.00000E+00  0.20493E+00  0.49930E-02  0.00000E+00  0.21493E+00  0.49935E-02  0.00000E+00  0.22493E+00  0.49940E-02  0.00000E+00  0.23493E+00
        0.49948E-02  0.00000E+00  0.24493E+00  0.49954E-02  0.00000E+00  0.25493E+00  0.49967E-02  0.00000E+00  0.26493E+00  0.49971E-02  0.00000E+00  0.27492E+00  0.49983E-02  0.00000E+00  0.28493E+00  0.50025E-02  0.00000E+00  0.29492E+00
        0.15121E-01  0.00000E+00  0.49645E-02  0.15054E-01  0.00000E+00  0.15017E-01  0.15072E-01  0.00000E+00  0.24953E-01  0.15061E-01  0.00000E+00  0.35005E-01  0.15068E-01  0.00000E+00  0.44969E-01  0.15062E-01  0.00000E+00  0.54980E-01
        0.15063E-01  0.00000E+00  0.64967E-01  0.15060E-01  0.00000E+00  0.74967E-01  0.15059E-01  0.00000E+00  0.84960E-01  0.15057E-01  0.00000E+00  0.94958E-01  0.15056E-01  0.00000E+00  0.10495E+00  0.15054E-01  0.00000E+00  0.11495E+00
        0.15052E-01  0.00000E+00  0.12495E+00  0.15050E-01  0.00000E+00  0.13494E+00  0.15048E-01  0.00000E+00  0.14494E+00  0.15046E-01  0.00000E+00  0.15494E+00  0.15044E-01  0.00000E+00  0.16494E+00  0.15041E-01  0.00000E+00  0.17493E+00
        0.15039E-01  0.00000E+00  0.18493E+00  0.15036E-01  0.00000E+00  0.19493E+00  0.15033E-01  0.00000E+00  0.20493E+00  0.15030E-01  0.00000E+00  0.21493E+00  0.15027E-01  0.00000E+00  0.22492E+00  0.15024E-01  0.00000E+00  0.23492E+00
        0.15021E-01  0.00000E+00  0.24492E+00  0.15017E-01  0.00000E+00  0.25492E+00  0.15014E-01  0.00000E+00  0.26492E+00  0.15010E-01  0.00000E+00  0.27492E+00  0.15007E-01  0.00000E+00  0.28492E+00  0.15006E-01  0.00000E+00  0.29492E+00
        0.25025E-01  0.00000E+00  0.50168E-02  0.25011E-01  0.00000E+00  0.15051E-01  0.25025E-01  0.00000E+00  0.24984E-01  0.25016E-01  0.00000E+00  0.35015E-01  0.25018E-01  0.00000E+00  0.44982E-01  0.25018E-01  0.00000E+00  0.54995E-01
        0.25016E-01  0.00000E+00  0.64980E-01  0.25016E-01  0.00000E+00  0.74981E-01  0.25015E-01  0.00000E+00  0.84973E-01  0.25015E-01  0.00000E+00  0.94971E-01  0.25014E-01  0.00000E+00  0.10497E+00  0.25013E-01  0.00000E+00  0.11496E+00
        0.25012E-01  0.00000E+00  0.12496E+00  0.25012E-01  0.00000E+00  0.13496E+00  0.25011E-01  0.00000E+00  0.14495E+00  0.25010E-01  0.00000E+00  0.15495E+00  0.25009E-01  0.00000E+00  0.16495E+00  0.25008E-01  0.00000E+00  0.17494E+00
        0.25007E-01  0.00000E+00  0.18494E+00  0.25007E-01  0.00000E+00  0.19494E+00  0.25006E-01  0.00000E+00  0.20494E+00  0.25005E-01  0.00000E+00  0.21494E+00  0.25004E-01  0.00000E+00  0.22494E+00  0.25003E-01  0.00000E+00  0.23493E+00
        0.25002E-01  0.00000E+00  0.24493E+00  0.25002E-01  0.00000E+00  0.25493E+00  0.25001E-01  0.00000E+00  0.26493E+00  0.25000E-01  0.00000E+00  0.27493E+00  0.25001E-01  0.00000E+00  0.28493E+00  0.25001E-01  0.00000E+00  0.29493E+00
        0.35069E-01  0.00000E+00  0.49798E-02  0.35088E-01  0.00000E+00  0.15038E-01  0.35083E-01  0.00000E+00  0.24977E-01  0.35080E-01  0.00000E+00  0.35015E-01  0.35080E-01  0.00000E+00  0.44984E-01  0.35079E-01  0.00000E+00  0.54995E-01
        0.35077E-01  0.00000E+00  0.64980E-01  0.35076E-01  0.00000E+00  0.74981E-01  0.35074E-01  0.00000E+00  0.84973E-01  0.35072E-01  0.00000E+00  0.94971E-01  0.35070E-01  0.00000E+00  0.10497E+00  0.35068E-01  0.00000E+00  0.11496E+00
        0.35066E-01  0.00000E+00  0.12496E+00  0.35064E-01  0.00000E+00  0.13495E+00  0.35061E-01  0.00000E+00  0.14495E+00  0.35058E-01  0.00000E+00  0.15495E+00  0.35056E-01  0.00000E+00  0.16494E+00  0.35053E-01  0.00000E+00  0.17494E+00
        0.35049E-01  0.00000E+00  0.18494E+00  0.35046E-01  0.00000E+00  0.19494E+00  0.35042E-01  0.00000E+00  0.20494E+00  0.35038E-01  0.00000E+00  0.21493E+00  0.35034E-01  0.00000E+00  0.22493E+00  0.35030E-01  0.00000E+00  0.23493E+00
        0.35026E-01  0.00000E+00  0.24493E+00  0.35022E-01  0.00000E+00  0.25493E+00  0.35017E-01  0.00000E+00  0.26493E+00  0.35012E-01  0.00000E+00  0.27493E+00  0.35008E-01  0.00000E+00  0.28493E+00  0.35004E-01  0.00000E+00  0.29493E+00
        0.45066E-01  0.00000E+00  0.49910E-02  0.45072E-01  0.00000E+00  0.15046E-01  0.45072E-01  0.00000E+00  0.24978E-01  0.45071E-01  0.00000E+00  0.35016E-01  0.45070E-01  0.00000E+00  0.44984E-01  0.45068E-01  0.00000E+00  0.54996E-01
        0.45067E-01  0.00000E+00  0.64981E-01  0.45065E-01  0.00000E+00  0.74982E-01  0.45063E-01  0.00000E+00  0.84974E-01  0.45061E-01  0.00000E+00  0.94971E-01  0.45059E-01  0.00000E+00  0.10497E+00  0.45057E-01  0.00000E+00  0.11496E+00
        0.45055E-01  0.00000E+00  0.12496E+00  0.45052E-01  0.00000E+00  0.13495E+00  0.45050E-01  0.00000E+00  0.14495E+00  0.45047E-01  0.00000E+00  0.15495E+00  0.45044E-01  0.00000E+00  0.16494E+00  0.45041E-01  0.00000E+00  0.17494E+00
        0.45038E-01  0.00000E+00  0.18494E+00  0.45035E-01  0.00000E+00  0.19494E+00  0.45032E-01  0.00000E+00  0.20494E+00  0.45028E-01  0.00000E+00  0.21493E+00  0.45025E-01  0.00000E+00  0.22493E+00  0.45021E-01  0.00000E+00  0.23493E+00
        0.45018E-01  0.00000E+00  0.24493E+00  0.45015E-01  0.00000E+00  0.25493E+00  0.45011E-01  0.00000E+00  0.26493E+00  0.45008E-01  0.00000E+00  0.27493E+00  0.45005E-01  0.00000E+00  0.28493E+00  0.45003E-01  0.00000E+00  0.29493E+00
        0.55084E-01  0.00000E+00  0.49859E-02  0.55104E-01  0.00000E+00  0.15040E-01  0.55109E-01  0.00000E+00  0.24978E-01  0.55107E-01  0.00000E+00  0.35015E-01  0.55106E-01  0.00000E+00  0.44983E-01  0.55104E-01  0.00000E+00  0.54994E-01
        0.55102E-01  0.00000E+00  0.64979E-01  0.55100E-01  0.00000E+00  0.74980E-01  0.55098E-01  0.00000E+00  0.84972E-01  0.55096E-01  0.00000E+00  0.94969E-01  0.55093E-01  0.00000E+00  0.10496E+00  0.55090E-01  0.00000E+00  0.11496E+00
        0.55087E-01  0.00000E+00  0.12495E+00  0.55084E-01  0.00000E+00  0.13495E+00  0.55080E-01  0.00000E+00  0.14495E+00  0.55076E-01  0.00000E+00  0.15494E+00  0.55072E-01  0.00000E+00  0.16494E+00  0.55068E-01  0.00000E+00  0.17494E+00
        0.55064E-01  0.00000E+00  0.18493E+00  0.55059E-01  0.00000E+00  0.19493E+00  0.55054E-01  0.00000E+00  0.20493E+00  0.55049E-01  0.00000E+00  0.21493E+00  0.55044E-01  0.00000E+00  0.22493E+00  0.55039E-01  0.00000E+00  0.23492E+00
        0.55033E-01  0.00000E+00  0.24492E+00  0.55027E-01  0.00000E+00  0.25492E+00  0.55021E-01  0.00000E+00  0.26492E+00  0.55016E-01  0.00000E+00  0.27492E+00  0.55010E-01  0.00000E+00  0.28492E+00  0.55005E-01  0.00000E+00  0.29492E+00
        0.65095E-01  0.00000E+00  0.49882E-02  0.65114E-01  0.00000E+00  0.15041E-01  0.65117E-01  0.00000E+00  0.24976E-01  0.65116E-01  0.00000E+00  0.35013E-01  0.65115E-01  0.00000E+00  0.44981E-01  0.65112E-01  0.00000E+00  0.54993E-01
        0.65110E-01  0.00000E+00  0.64977E-01  0.65107E-01  0.00000E+00  0.74978E-01  0.65105E-01  0.00000E+00  0.84969E-01  0.65102E-01  0.00000E+00  0.94967E-01  0.65098E-01  0.00000E+00  0.10496E+00  0.65095E-01  0.00000E+00  0.11496E+00
        0.65091E-01  0.00000E+00  0.12495E+00  0.65087E-01  0.00000E+00  0.13495E+00  0.65083E-01  0.00000E+00  0.14494E+00  0.65079E-01  0.00000E+00  0.15494E+00  0.65074E-01  0.00000E+00  0.16494E+00  0.65069E-01  0.00000E+00  0.17493E+00
        0.65064E-01  0.00000E+00  0.18493E+00  0.65059E-01  0.00000E+00  0.19493E+00  0.65054E-01  0.00000E+00  0.20493E+00  0.65048E-01  0.00000E+00  0.21492E+00  0.65043E-01  0.00000E+00  0.22492E+00  0.65037E-01  0.00000E+00  0.23492E+00
        0.65032E-01  0.00000E+00  0.24492E+00  0.65026E-01  0.00000E+00  0.25492E+00  0.65020E-01  0.00000E+00  0.26492E+00  0.65015E-01  0.00000E+00  0.27492E+00  0.65009E-01  0.00000E+00  0.28492E+00  0.65005E-01  0.00000E+00  0.29492E+00
        0.75111E-01  0.00000E+00  0.49867E-02  0.75136E-01  0.00000E+00  0.15039E-01  0.75142E-01  0.00000E+00  0.24975E-01  0.75142E-01  0.00000E+00  0.35012E-01  0.75140E-01  0.00000E+00  0.44979E-01  0.75138E-01  0.00000E+00  0.54990E-01
        0.75135E-01  0.00000E+00  0.64974E-01  0.75132E-01  0.00000E+00  0.74975E-01  0.75129E-01  0.00000E+00  0.84966E-01  0.75125E-01  0.00000E+00  0.94963E-01  0.75121E-01  0.00000E+00  0.10496E+00  0.75117E-01  0.00000E+00  0.11495E+00
        0.75113E-01  0.00000E+00  0.12495E+00  0.75109E-01  0.00000E+00  0.13494E+00  0.75104E-01  0.00000E+00  0.14494E+00  0.75099E-01  0.00000E+00  0.15493E+00  0.75093E-01  0.00000E+00  0.16493E+00  0.75087E-01  0.00000E+00  0.17493E+00
        0.75082E-01  0.00000E+00  0.18492E+00  0.75075E-01  0.00000E+00  0.19492E+00  0.75069E-01  0.00000E+00  0.20492E+00  0.75062E-01  0.00000E+00  0.21492E+00  0.75056E-01  0.00000E+00  0.22492E+00  0.75049E-01  0.00000E+00  0.23491E+00
        0.75042E-01  0.00000E+00  0.24491E+00  0.75034E-01  0.00000E+00  0.25491E+00  0.75027E-01  0.00000E+00  0.26491E+00  0.75019E-01  0.00000E+00  0.27491E+00  0.75012E-01  0.00000E+00  0.28491E+00  0.75007E-01  0.00000E+00  0.29491E+00
[...]
<PointData>
      <DataArray type="Float32" Name="Velocity vectors"  NumberOfComponents="3"  format="ascii" >
          0.67540E-02  0.00000E+00  0.30361E-02  0.59234E-02  0.00000E+00  0.42652E-02  0.71949E-02  0.00000E+00  0.19398E-02  0.64167E-02  0.00000E+00  0.81572E-03  0.62816E-02  0.00000E+00  0.18317E-03  0.60834E-02  0.00000E+00 -0.83234E-03
          0.58857E-02  0.00000E+00 -0.15051E-02  0.57322E-02  0.00000E+00 -0.24886E-02  0.55381E-02  0.00000E+00 -0.32044E-02  0.53889E-02  0.00000E+00 -0.40807E-02  0.51982E-02  0.00000E+00 -0.47401E-02  0.50420E-02  0.00000E+00 -0.54396E-02
          0.48663E-02  0.00000E+00 -0.59387E-02  0.47172E-02  0.00000E+00 -0.63845E-02  0.45417E-02  0.00000E+00 -0.66434E-02  0.43362E-02  0.00000E+00 -0.68444E-02  0.40611E-02  0.00000E+00 -0.70056E-02  0.37430E-02  0.00000E+00 -0.72808E-02
          0.34016E-02  0.00000E+00 -0.76825E-02  0.30809E-02  0.00000E+00 -0.82163E-02  0.27940E-02  0.00000E+00 -0.87686E-02  0.25384E-02  0.00000E+00 -0.92452E-02  0.22888E-02  0.00000E+00 -0.95596E-02  0.20175E-02  0.00000E+00 -0.97340E-02
          0.17359E-02  0.00000E+00 -0.97839E-02  0.14173E-02  0.00000E+00 -0.98389E-02  0.11047E-02  0.00000E+00 -0.98877E-02  0.77064E-03  0.00000E+00 -0.10081E-01  0.51234E-03  0.00000E+00 -0.99926E-02  0.31100E-04  0.00000E+00 -0.10940E-01
          0.15634E-01  0.00000E+00  0.25312E-02  0.15122E-01  0.00000E+00  0.28389E-02  0.15969E-01  0.00000E+00  0.14924E-02  0.15388E-01  0.00000E+00  0.17934E-02  0.14943E-01  0.00000E+00  0.42981E-03  0.14564E-01  0.00000E+00 -0.43921E-03
          0.14096E-01  0.00000E+00 -0.13785E-02  0.13736E-01  0.00000E+00 -0.25240E-02  0.13299E-01  0.00000E+00 -0.33890E-02  0.12926E-01  0.00000E+00 -0.44726E-02  0.12490E-01  0.00000E+00 -0.52448E-02  0.12082E-01  0.00000E+00 -0.60997E-02
          0.11641E-01  0.00000E+00 -0.66582E-02  0.11215E-01  0.00000E+00 -0.71975E-02  0.10747E-01  0.00000E+00 -0.75046E-02  0.10228E-01  0.00000E+00 -0.77940E-02  0.96171E-02  0.00000E+00 -0.80279E-02  0.89388E-02  0.00000E+00 -0.84096E-02
          0.82265E-02  0.00000E+00 -0.89146E-02  0.75349E-02  0.00000E+00 -0.95753E-02  0.68878E-02  0.00000E+00 -0.10247E-01  0.62758E-02  0.00000E+00 -0.10840E-01  0.56641E-02  0.00000E+00 -0.11234E-01  0.50082E-02  0.00000E+00 -0.11463E-01
          0.43085E-02  0.00000E+00 -0.11520E-01  0.35349E-02  0.00000E+00 -0.11602E-01  0.27723E-02  0.00000E+00 -0.11648E-01  0.19669E-02  0.00000E+00 -0.11872E-01  0.12666E-02  0.00000E+00 -0.11989E-01  0.80266E-03  0.00000E+00 -0.12277E-01
          0.21890E-01  0.00000E+00  0.39252E-02  0.24081E-01  0.00000E+00  0.39230E-02  0.25095E-01  0.00000E+00  0.26843E-02  0.24340E-01  0.00000E+00  0.23927E-02  0.23736E-01  0.00000E+00  0.96783E-03  0.23145E-01  0.00000E+00  0.22651E-03
          0.22423E-01  0.00000E+00 -0.85052E-03  0.21779E-01  0.00000E+00 -0.19848E-02  0.21099E-01  0.00000E+00 -0.28979E-02  0.20418E-01  0.00000E+00 -0.40504E-02  0.19720E-01  0.00000E+00 -0.48637E-02  0.18985E-01  0.00000E+00 -0.57950E-02
          0.18239E-01  0.00000E+00 -0.63759E-02  0.17460E-01  0.00000E+00 -0.69721E-02  0.16663E-01  0.00000E+00 -0.73229E-02  0.15802E-01  0.00000E+00 -0.77065E-02  0.14870E-01  0.00000E+00 -0.80228E-02  0.13853E-01  0.00000E+00 -0.84818E-02
          0.12792E-01  0.00000E+00 -0.90093E-02  0.11723E-01  0.00000E+00 -0.96647E-02  0.10683E-01  0.00000E+00 -0.10315E-01  0.96639E-02  0.00000E+00 -0.10915E-01  0.86418E-02  0.00000E+00 -0.11349E-01  0.75767E-02  0.00000E+00 -0.11644E-01
          0.64584E-02  0.00000E+00 -0.11770E-01  0.52711E-02  0.00000E+00 -0.11894E-01  0.40797E-02  0.00000E+00 -0.11945E-01  0.28778E-02  0.00000E+00 -0.12130E-01  0.18265E-02  0.00000E+00 -0.12105E-01  0.10649E-02  0.00000E+00 -0.12673E-01
          0.28768E-01  0.00000E+00  0.26808E-02  0.34478E-01  0.00000E+00  0.30871E-02  0.35375E-01  0.00000E+00  0.21005E-02  0.34636E-01  0.00000E+00  0.19460E-02  0.33797E-01  0.00000E+00  0.54888E-03  0.32942E-01  0.00000E+00 -0.18027E-03
          0.31969E-01  0.00000E+00 -0.13443E-02  0.31071E-01  0.00000E+00 -0.24189E-02  0.30094E-01  0.00000E+00 -0.34068E-02  0.29137E-01  0.00000E+00 -0.45553E-02  0.28137E-01  0.00000E+00 -0.54268E-02  0.27115E-01  0.00000E+00 -0.63929E-02
          0.26056E-01  0.00000E+00 -0.70222E-02  0.24954E-01  0.00000E+00 -0.76632E-02  0.23808E-01  0.00000E+00 -0.80716E-02  0.22596E-01  0.00000E+00 -0.85386E-02  0.21307E-01  0.00000E+00 -0.89509E-02  0.19929E-01  0.00000E+00 -0.94997E-02
          0.18486E-01  0.00000E+00 -0.10081E-01  0.17003E-01  0.00000E+00 -0.10756E-01  0.15513E-01  0.00000E+00 -0.11405E-01  0.14016E-01  0.00000E+00 -0.12013E-01  0.12509E-01  0.00000E+00 -0.12485E-01  0.10964E-01  0.00000E+00 -0.12835E-01
          0.93760E-02  0.00000E+00 -0.13040E-01  0.77199E-02  0.00000E+00 -0.13225E-01  0.60327E-02  0.00000E+00 -0.13313E-01  0.43248E-02  0.00000E+00 -0.13531E-01  0.27302E-02  0.00000E+00 -0.13615E-01  0.15003E-02  0.00000E+00 -0.13960E-01
          0.34934E-01  0.00000E+00  0.22769E-02  0.41148E-01  0.00000E+00  0.22318E-02  0.42259E-01  0.00000E+00  0.13564E-02  0.41406E-01  0.00000E+00  0.11102E-02  0.40373E-01  0.00000E+00 -0.24302E-03  0.39235E-01  0.00000E+00 -0.10227E-02
          0.38051E-01  0.00000E+00 -0.22099E-02  0.36871E-01  0.00000E+00 -0.32830E-02  0.35637E-01  0.00000E+00 -0.43157E-02  0.34401E-01  0.00000E+00 -0.54652E-02  0.33116E-01  0.00000E+00 -0.63793E-02  0.31819E-01  0.00000E+00 -0.73635E-02
          0.30481E-01  0.00000E+00 -0.80398E-02  0.29106E-01  0.00000E+00 -0.87233E-02  0.27672E-01  0.00000E+00 -0.91925E-02  0.26172E-01  0.00000E+00 -0.97297E-02  0.24592E-01  0.00000E+00 -0.10223E-01  0.22938E-01  0.00000E+00 -0.10840E-01
          0.21231E-01  0.00000E+00 -0.11464E-01  0.19498E-01  0.00000E+00 -0.12154E-01  0.17757E-01  0.00000E+00 -0.12804E-01  0.16008E-01  0.00000E+00 -0.13414E-01  0.14241E-01  0.00000E+00 -0.13906E-01  0.12433E-01  0.00000E+00 -0.14288E-01
          0.10584E-01  0.00000E+00 -0.14536E-01  0.86860E-02  0.00000E+00 -0.14761E-01  0.67617E-02  0.00000E+00 -0.14879E-01  0.48356E-02  0.00000E+00 -0.15091E-01  0.30492E-02  0.00000E+00 -0.15107E-01  0.17408E-02  0.00000E+00 -0.15580E-01
          0.39693E-01  0.00000E+00  0.14878E-02  0.46962E-01  0.00000E+00  0.12148E-02  0.48570E-01  0.00000E+00  0.42461E-03  0.47640E-01  0.00000E+00  0.23819E-04  0.46415E-01  0.00000E+00 -0.13694E-02  0.45116E-01  0.00000E+00 -0.21604E-02
          0.43739E-01  0.00000E+00 -0.34115E-02  0.42368E-01  0.00000E+00 -0.44809E-02  0.40942E-01  0.00000E+00 -0.55749E-02  0.39497E-01  0.00000E+00 -0.67448E-02  0.38003E-01  0.00000E+00 -0.77106E-02  0.36484E-01  0.00000E+00 -0.87172E-02
          0.34933E-01  0.00000E+00 -0.94395E-02  0.33350E-01  0.00000E+00 -0.10170E-01  0.31715E-01  0.00000E+00 -0.10710E-01  0.30011E-01  0.00000E+00 -0.11329E-01  0.28223E-01  0.00000E+00 -0.11913E-01  0.26352E-01  0.00000E+00 -0.12605E-01
          0.24421E-01  0.00000E+00 -0.13279E-01  0.22455E-01  0.00000E+00 -0.13995E-01  0.20472E-01  0.00000E+00 -0.14664E-01  0.18471E-01  0.00000E+00 -0.15302E-01  0.16442E-01  0.00000E+00 -0.15841E-01  0.14365E-01  0.00000E+00 -0.16283E-01
          0.12234E-01  0.00000E+00 -0.16593E-01  0.10054E-01  0.00000E+00 -0.16874E-01  0.78415E-02  0.00000E+00 -0.17029E-01  0.56399E-02  0.00000E+00 -0.17286E-01  0.35693E-02  0.00000E+00 -0.17373E-01  0.20456E-02  0.00000E+00 -0.17638E-01
          0.42966E-01  0.00000E+00  0.59059E-03  0.50210E-01  0.00000E+00 -0.80797E-04  0.51873E-01  0.00000E+00 -0.87885E-03  0.50817E-01  0.00000E+00 -0.14360E-02  0.49469E-01  0.00000E+00 -0.27483E-02  0.47986E-01  0.00000E+00 -0.35926E-02
          0.46423E-01  0.00000E+00 -0.48912E-02  0.44871E-01  0.00000E+00 -0.59567E-02  0.43252E-01  0.00000E+00 -0.71076E-02  0.41631E-01  0.00000E+00 -0.82901E-02  0.39958E-01  0.00000E+00 -0.93050E-02  0.38264E-01  0.00000E+00 -0.10329E-01
          0.36535E-01  0.00000E+00 -0.11083E-01  0.34781E-01  0.00000E+00 -0.11844E-01  0.32980E-01  0.00000E+00 -0.12440E-01  0.31123E-01  0.00000E+00 -0.13127E-01  0.29192E-01  0.00000E+00 -0.13792E-01  0.27190E-01  0.00000E+00 -0.14552E-01
          0.25132E-01  0.00000E+00 -0.15268E-01  0.23045E-01  0.00000E+00 -0.16001E-01  0.20943E-01  0.00000E+00 -0.16678E-01  0.18833E-01  0.00000E+00 -0.17324E-01  0.16709E-01  0.00000E+00 -0.17885E-01  0.14560E-01  0.00000E+00 -0.18364E-01
          0.12375E-01  0.00000E+00 -0.18709E-01  0.10161E-01  0.00000E+00 -0.19023E-01  0.79202E-02  0.00000E+00 -0.19191E-01  0.57035E-02  0.00000E+00 -0.19445E-01  0.36517E-02  0.00000E+00 -0.19514E-01  0.21797E-02  0.00000E+00 -0.19837E-01
          0.44025E-01  0.00000E+00 -0.44233E-03  0.50842E-01  0.00000E+00 -0.13566E-02  0.52721E-01  0.00000E+00 -0.21789E-02  0.51760E-01  0.00000E+00 -0.29143E-02  0.50399E-01  0.00000E+00 -0.41904E-02  0.48873E-01  0.00000E+00 -0.51202E-02
          0.47266E-01  0.00000E+00 -0.64531E-02  0.45661E-01  0.00000E+00 -0.75370E-02  0.43977E-01  0.00000E+00 -0.87437E-02  0.42295E-01  0.00000E+00 -0.99341E-02  0.40566E-01  0.00000E+00 -0.11001E-01  0.38821E-01  0.00000E+00 -0.12045E-01
          0.37040E-01  0.00000E+00 -0.12838E-01  0.35233E-01  0.00000E+00 -0.13632E-01  0.33381E-01  0.00000E+00 -0.14284E-01  0.31475E-01  0.00000E+00 -0.15035E-01  0.29504E-01  0.00000E+00 -0.15773E-01  0.27475E-01  0.00000E+00 -0.16595E-01
          0.25401E-01  0.00000E+00 -0.17355E-01  0.23300E-01  0.00000E+00 -0.18113E-01  0.21182E-01  0.00000E+00 -0.18808E-01  0.19048E-01  0.00000E+00 -0.19472E-01  0.16896E-01  0.00000E+00 -0.20058E-01  0.14719E-01  0.00000E+00 -0.20575E-01
          0.12511E-01  0.00000E+00 -0.20956E-01  0.10281E-01  0.00000E+00 -0.21311E-01  0.80248E-02  0.00000E+00 -0.21513E-01  0.57961E-02  0.00000E+00 -0.21804E-01  0.37293E-02  0.00000E+00 -0.21935E-01  0.22673E-02  0.00000E+00 -0.22103E-01
          0.43063E-01  0.00000E+00 -0.15530E-02  0.48905E-01  0.00000E+00 -0.26933E-02  0.50877E-01  0.00000E+00 -0.35458E-02  0.50006E-01  0.00000E+00 -0.45166E-02  0.48725E-01  0.00000E+00 -0.56812E-02  0.47227E-01  0.00000E+00 -0.67262E-02
          0.45647E-01  0.00000E+00 -0.80762E-02  0.44064E-01  0.00000E+00 -0.91999E-02  0.42390E-01  0.00000E+00 -0.10459E-01  0.40715E-01  0.00000E+00 -0.11657E-01  0.38989E-01  0.00000E+00 -0.12764E-01  0.37255E-01  0.00000E+00 -0.13821E-01
          0.35487E-01  0.00000E+00 -0.14646E-01  0.33699E-01  0.00000E+00 -0.15468E-01  0.31864E-01  0.00000E+00 -0.16171E-01  0.29976E-01  0.00000E+00 -0.16978E-01  0.28029E-01  0.00000E+00 -0.17774E-01  0.26035E-01  0.00000E+00 -0.18638E-01
          0.24007E-01  0.00000E+00 -0.19426E-01  0.21964E-01  0.00000E+00 -0.20196E-01  0.19912E-01  0.00000E+00 -0.20898E-01  0.17855E-01  0.00000E+00 -0.21573E-01  0.15790E-01  0.00000E+00 -0.22170E-01  0.13714E-01  0.00000E+00 -0.22705E-01
          0.11624E-01  0.00000E+00 -0.23097E-01  0.95317E-02  0.00000E+00 -0.23468E-01  0.74291E-02  0.00000E+00 -0.23678E-01  0.53786E-02  0.00000E+00 -0.23965E-01  0.35256E-02  0.00000E+00 -0.24110E-01  0.22571E-02  0.00000E+00 -0.24267E-01
          0.39832E-01  0.00000E+00 -0.25757E-02  0.44241E-01  0.00000E+00 -0.37813E-02  0.46318E-01  0.00000E+00 -0.47562E-02  0.45767E-01  0.00000E+00 -0.59373E-02  0.44755E-01  0.00000E+00 -0.69826E-02  0.43449E-01  0.00000E+00 -0.82086E-02
          0.42064E-01  0.00000E+00 -0.95422E-02  0.40667E-01  0.00000E+00 -0.10734E-01  0.39166E-01  0.00000E+00 -0.12048E-01  0.37657E-01  0.00000E+00 -0.13268E-01  0.36082E-01  0.00000E+00 -0.14418E-01  0.34495E-01  0.00000E+00 -0.15490E-01
          0.32865E-01  0.00000E+00 -0.16351E-01  0.31208E-01  0.00000E+00 -0.17204E-01  0.29502E-01  0.00000E+00 -0.17963E-01  0.27745E-01  0.00000E+00 -0.18827E-01  0.25931E-01  0.00000E+00 -0.19678E-01  0.24074E-01  0.00000E+00 -0.20583E-01
          0.22186E-01  0.00000E+00 -0.21397E-01  0.20282E-01  0.00000E+00 -0.22178E-01  0.18370E-01  0.00000E+00 -0.22888E-01  0.16456E-01  0.00000E+00 -0.23569E-01  0.14540E-01  0.00000E+00 -0.24174E-01  0.12623E-01  0.00000E+00 -0.24722E-01
          0.10703E-01  0.00000E+00 -0.25120E-01  0.87888E-02  0.00000E+00 -0.25507E-01  0.68672E-02  0.00000E+00 -0.25736E-01  0.49965E-02  0.00000E+00 -0.26034E-01  0.33260E-02  0.00000E+00 -0.26236E-01  0.22163E-02  0.00000E+00 -0.26313E-01
          0.34997E-01  0.00000E+00 -0.34167E-02  0.37810E-01  0.00000E+00 -0.45741E-02  0.40025E-01  0.00000E+00 -0.57000E-02  0.39893E-01  0.00000E+00 -0.71161E-02  0.39266E-01  0.00000E+00 -0.80371E-02  0.38269E-01  0.00000E+00 -0.94915E-02
          0.37191E-01  0.00000E+00 -0.10790E-01  0.36068E-01  0.00000E+00 -0.12083E-01  0.34832E-01  0.00000E+00 -0.13447E-01  0.33576E-01  0.00000E+00 -0.14711E-01  0.32233E-01  0.00000E+00 -0.15912E-01  0.30866E-01  0.00000E+00 -0.17011E-01
          0.29435E-01  0.00000E+00 -0.17921E-01  0.27961E-01  0.00000E+00 -0.18812E-01  0.26426E-01  0.00000E+00 -0.19626E-01  0.24838E-01  0.00000E+00 -0.20542E-01  0.23195E-01  0.00000E+00 -0.21441E-01  0.21514E-01  0.00000E+00 -0.22378E-01
          0.19803E-01  0.00000E+00 -0.23215E-01  0.18073E-01  0.00000E+00 -0.24007E-01  0.16332E-01  0.00000E+00 -0.24719E-01  0.14589E-01  0.00000E+00 -0.25400E-01  0.12848E-01  0.00000E+00 -0.25996E-01  0.11119E-01  0.00000E+00 -0.26539E-01
          0.94004E-02  0.00000E+00 -0.26923E-01  0.77063E-02  0.00000E+00 -0.27303E-01  0.60210E-02  0.00000E+00 -0.27539E-01  0.44015E-02  0.00000E+00 -0.27826E-01  0.30073E-02  0.00000E+00 -0.28060E-01  0.21325E-02  0.00000E+00 -0.28129E-01
          0.29075E-01  0.00000E+00 -0.38707E-02  0.30236E-01  0.00000E+00 -0.48229E-02  0.32579E-01  0.00000E+00 -0.62327E-02  0.33008E-01  0.00000E+00 -0.78365E-02  0.32906E-01  0.00000E+00 -0.86441E-02  0.32348E-01  0.00000E+00 -0.10390E-01
          0.31707E-01  0.00000E+00 -0.11644E-01  0.30972E-01  0.00000E+00 -0.13087E-01  0.30111E-01  0.00000E+00 -0.14498E-01  0.29205E-01  0.00000E+00 -0.15837E-01  0.28188E-01  0.00000E+00 -0.17104E-01  0.27125E-01  0.00000E+00 -0.18253E-01
          0.25973E-01  0.00000E+00 -0.19233E-01  0.24757E-01  0.00000E+00 -0.20185E-01  0.23462E-01  0.00000E+00 -0.21067E-01  0.22103E-01  0.00000E+00 -0.22040E-01  0.20680E-01  0.00000E+00 -0.22991E-01  0.19211E-01  0.00000E+00 -0.23967E-01
          0.17703E-01  0.00000E+00 -0.24833E-01  0.16166E-01  0.00000E+00 -0.25644E-01  0.14610E-01  0.00000E+00 -0.26368E-01  0.13045E-01  0.00000E+00 -0.27054E-01  0.11481E-01  0.00000E+00 -0.27642E-01  0.99335E-02  0.00000E+00 -0.28175E-01
          0.83994E-02  0.00000E+00 -0.28541E-01  0.68949E-02  0.00000E+00 -0.28909E-01  0.54042E-02  0.00000E+00 -0.29157E-01  0.39773E-02  0.00000E+00 -0.29438E-01  0.27842E-02  0.00000E+00 -0.29717E-01  0.20789E-02  0.00000E+00 -0.29773E-01
          0.23232E-01  0.00000E+00 -0.38679E-02  0.23061E-01  0.00000E+00 -0.44998E-02  0.25562E-01  0.00000E+00 -0.62596E-02  0.26588E-01  0.00000E+00 -0.80372E-02  0.27021E-01  0.00000E+00 -0.87929E-02  0.26922E-01  0.00000E+00 -0.10858E-01
          0.26750E-01  0.00000E+00 -0.12077E-01  0.26420E-01  0.00000E+00 -0.13724E-01  0.25950E-01  0.00000E+00 -0.15187E-01  0.25404E-01  0.00000E+00 -0.16639E-01  0.24716E-01  0.00000E+00 -0.17994E-01  0.23953E-01  0.00000E+00 -0.19222E-01
          0.23074E-01  0.00000E+00 -0.20294E-01  0.22112E-01  0.00000E+00 -0.21324E-01  0.21052E-01  0.00000E+00 -0.22287E-01  0.19916E-01  0.00000E+00 -0.23328E-01  0.18703E-01  0.00000E+00 -0.24342E-01  0.17427E-01  0.00000E+00 -0.25367E-01
          0.16095E-01  0.00000E+00 -0.26274E-01  0.14718E-01  0.00000E+00 -0.27115E-01  0.13306E-01  0.00000E+00 -0.27857E-01  0.11876E-01  0.00000E+00 -0.28549E-01  0.10442E-01  0.00000E+00 -0.29125E-01  0.90279E-02  0.00000E+00 -0.29639E-01
          0.76301E-02  0.00000E+00 -0.29981E-01  0.62658E-02  0.00000E+00 -0.30325E-01  0.49234E-02  0.00000E+00 -0.30583E-01  0.36447E-02  0.00000E+00 -0.30851E-01  0.26149E-02  0.00000E+00 -0.31156E-01  0.20497E-02  0.00000E+00 -0.31255E-01
          0.18420E-01  0.00000E+00 -0.33407E-02  0.17323E-01  0.00000E+00 -0.35737E-02  0.19886E-01  0.00000E+00 -0.57974E-02  0.21451E-01  0.00000E+00 -0.76878E-02  0.22358E-01  0.00000E+00 -0.84717E-02  0.22669E-01  0.00000E+00 -0.10864E-01
          0.22920E-01  0.00000E+00 -0.12062E-01  0.22953E-01  0.00000E+00 -0.13964E-01  0.22842E-01  0.00000E+00 -0.15485E-01  0.22624E-01  0.00000E+00 -0.17090E-01  0.22240E-01  0.00000E+00 -0.18557E-01  0.21756E-01  0.00000E+00 -0.19894E-01
          0.21134E-01  0.00000E+00 -0.21079E-01  0.20412E-01  0.00000E+00 -0.22207E-01  0.19576E-01  0.00000E+00 -0.23266E-01  0.18650E-01  0.00000E+00 -0.24391E-01  0.17630E-01  0.00000E+00 -0.25485E-01  0.16528E-01  0.00000E+00 -0.26580E-01
          0.15347E-01  0.00000E+00 -0.27551E-01  0.14099E-01  0.00000E+00 -0.28444E-01  0.12793E-01  0.00000E+00 -0.29223E-01  0.11452E-01  0.00000E+00 -0.29936E-01  0.10095E-01  0.00000E+00 -0.30508E-01  0.87483E-02  0.00000E+00 -0.31008E-01
          0.74109E-02  0.00000E+00 -0.31332E-01  0.60996E-02  0.00000E+00 -0.31654E-01  0.48107E-02  0.00000E+00 -0.31931E-01  0.35774E-02  0.00000E+00 -0.32199E-01  0.25986E-02  0.00000E+00 -0.32527E-01  0.20830E-02  0.00000E+00 -0.32672E-01
          0.15688E-01  0.00000E+00 -0.24132E-02  0.14268E-01  0.00000E+00 -0.22536E-02  0.16777E-01  0.00000E+00 -0.49598E-02  0.18691E-01  0.00000E+00 -0.69070E-02  0.19876E-01  0.00000E+00 -0.78421E-02  0.20431E-01  0.00000E+00 -0.10530E-01
          0.20947E-01  0.00000E+00 -0.11733E-01  0.21193E-01  0.00000E+00 -0.13922E-01  0.21308E-01  0.00000E+00 -0.15503E-01  0.21289E-01  0.00000E+00 -0.17293E-01  0.21101E-01  0.00000E+00 -0.18881E-01  0.20801E-01  0.00000E+00 -0.20351E-01
          0.20354E-01  0.00000E+00 -0.21659E-01  0.19801E-01  0.00000E+00 -0.22898E-01  0.19123E-01  0.00000E+00 -0.24068E-01  0.18343E-01  0.00000E+00 -0.25289E-01  0.17453E-01  0.00000E+00 -0.26482E-01  0.16463E-01  0.00000E+00 -0.27666E-01
          0.15373E-01  0.00000E+00 -0.28722E-01  0.14193E-01  0.00000E+00 -0.29690E-01  0.12937E-01  0.00000E+00 -0.30523E-01  0.11630E-01  0.00000E+00 -0.31269E-01  0.10290E-01  0.00000E+00 -0.31849E-01  0.89482E-02  0.00000E+00 -0.32343E-01
          0.76037E-02  0.00000E+00 -0.32659E-01  0.62711E-02  0.00000E+00 -0.32961E-01  0.49585E-02  0.00000E+00 -0.33260E-01  0.36946E-02  0.00000E+00 -0.33537E-01  0.26902E-02  0.00000E+00 -0.33871E-01  0.21634E-02  0.00000E+00 -0.34096E-01
          0.15476E-01  0.00000E+00 -0.12875E-02  0.14245E-01  0.00000E+00 -0.82478E-03  0.16476E-01  0.00000E+00 -0.40122E-02  0.18444E-01  0.00000E+00 -0.59190E-02  0.19635E-01  0.00000E+00 -0.71081E-02  0.20208E-01  0.00000E+00 -0.10025E-01
          0.20769E-01  0.00000E+00 -0.11261E-01  0.21035E-01  0.00000E+00 -0.13738E-01  0.21206E-01  0.00000E+00 -0.15374E-01  0.21230E-01  0.00000E+00 -0.17361E-01  0.21106E-01  0.00000E+00 -0.19060E-01  0.20877E-01  0.00000E+00 -0.20670E-01
          0.20509E-01  0.00000E+00 -0.22099E-01  0.20043E-01  0.00000E+00 -0.23451E-01  0.19453E-01  0.00000E+00 -0.24738E-01  0.18758E-01  0.00000E+00 -0.26068E-01  0.17946E-01  0.00000E+00 -0.27373E-01  0.17022E-01  0.00000E+00 -0.28666E-01
          0.15982E-01  0.00000E+00 -0.29828E-01  0.14836E-01  0.00000E+00 -0.30890E-01  0.13597E-01  0.00000E+00 -0.31796E-01  0.12290E-01  0.00000E+00 -0.32595E-01  0.10933E-01  0.00000E+00 -0.33201E-01  0.95537E-02  0.00000E+00 -0.33704E-01
          0.81540E-02  0.00000E+00 -0.34033E-01  0.67435E-02  0.00000E+00 -0.34333E-01  0.53444E-02  0.00000E+00 -0.34666E-01  0.39843E-02  0.00000E+00 -0.34971E-01  0.28794E-02  0.00000E+00 -0.35311E-01  0.22815E-02  0.00000E+00 -0.35602E-01
          0.17737E-01  0.00000E+00 -0.27716E-03  0.17123E-01  0.00000E+00  0.31849E-03  0.18905E-01  0.00000E+00 -0.32526E-02  0.20613E-01  0.00000E+00 -0.50306E-02  0.21507E-01  0.00000E+00 -0.65573E-02  0.21851E-01  0.00000E+00 -0.95996E-02