<?xml version="1.0"?>
<VTKFile type="UnstructuredGrid" version="0.1" byte_order="LittleEndian" compressor="vtkZLibDataCompressor">
<UnstructuredGrid>
  <Piece NumberOfPoints="1800"        NumberOfCells="1"      >
    <Points>
      <DataArray type="Float32" NumberOfComponents="3" format="ascii" >
        0.48714E-01  0.00000E+00  0.24927E-02  0.33002E-01  0.00000E+00  0.34713E-02  0.17371E-01  0.00000E+00  0.38711E-02  0.23856E-01  0.00000E+00  0.97551E-02  0.70751E-02  0.00000E+00  0.77182E-02  0.11883E-01  0.00000E+00  0.14212E-01
        0.72511E-02  0.00000E+00  0.19285E-01  0.13824E-01  0.00000E+00  0.23959E-01  0.76381E-02  0.00000E+00  0.28935E-01  0.10537E-01  0.00000E+00  0.35183E-01  0.73835E-02  0.00000E+00  0.41122E-01  0.11542E-01  0.00000E+00  0.46491E-01
        0.77326E-02  0.00000E+00  0.52395E-01  0.12760E-01  0.00000E+00  0.57612E-01  0.90248E-02  0.00000E+00  0.62824E-01  0.13472E-01  0.00000E+00  0.67557E-01  0.12192E-01  0.00000E+00  0.72512E-01  0.13298E-01  0.00000E+00  0.77361E-01
        0.13034E-01  0.00000E+00  0.81840E-01  0.12956E-01  0.00000E+00  0.86331E-01  0.12547E-01  0.00000E+00  0.90858E-01  0.12227E-01  0.00000E+00  0.95575E-01  0.11959E-01  0.00000E+00  0.10033E+00  0.11480E-01  0.00000E+00  0.10494E+00
        0.10623E-01  0.00000E+00  0.10942E+00  0.99934E-02  0.00000E+00  0.11442E+00  0.10336E-01  0.00000E+00  0.11999E+00  0.97617E-02  0.00000E+00  0.12527E+00  0.73539E-02  0.00000E+00  0.12937E+00  0.76019E-02  0.00000E+00  0.13287E+00
        0.64654E-01  0.00000E+00  0.32979E-02  0.40783E-01  0.00000E+00  0.97635E-02  0.56581E-01  0.00000E+00  0.10036E-01  0.48659E-01  0.00000E+00  0.15580E-01  0.30980E-01  0.00000E+00  0.15231E-01  0.40428E-01  0.00000E+00  0.20897E-01
        0.23554E-01  0.00000E+00  0.20886E-01  0.35720E-01  0.00000E+00  0.27418E-01  0.23736E-01  0.00000E+00  0.29706E-01  0.35239E-01  0.00000E+00  0.35015E-01  0.22373E-01  0.00000E+00  0.37884E-01  0.33727E-01  0.00000E+00  0.42902E-01
        0.22674E-01  0.00000E+00  0.46844E-01  0.34542E-01  0.00000E+00  0.51028E-01  0.23797E-01  0.00000E+00  0.55827E-01  0.35841E-01  0.00000E+00  0.59408E-01  0.25427E-01  0.00000E+00  0.64700E-01  0.36289E-01  0.00000E+00  0.68420E-01
        0.28683E-01  0.00000E+00  0.73492E-01  0.34660E-01  0.00000E+00  0.78256E-01  0.31828E-01  0.00000E+00  0.83694E-01  0.32257E-01  0.00000E+00  0.89163E-01  0.31019E-01  0.00000E+00  0.94391E-01  0.31007E-01  0.00000E+00  0.10018E+00
        0.29308E-01  0.00000E+00  0.10563E+00  0.30626E-01  0.00000E+00  0.11058E+00  0.27226E-01  0.00000E+00  0.11628E+00  0.28666E-01  0.00000E+00  0.12330E+00  0.26295E-01  0.00000E+00  0.12657E+00  0.26751E-01  0.00000E+00  0.13068E+00
        0.83145E-01  0.00000E+00  0.32549E-02  0.72974E-01  0.00000E+00  0.90316E-02  0.92489E-01  0.00000E+00  0.90340E-02  0.81474E-01  0.00000E+00  0.14216E-01  0.64318E-01  0.00000E+00  0.16321E-01  0.73326E-01  0.00000E+00  0.20898E-01
        0.55046E-01  0.00000E+00  0.23076E-01  0.65086E-01  0.00000E+00  0.26954E-01  0.48363E-01  0.00000E+00  0.29543E-01  0.60008E-01  0.00000E+00  0.33990E-01  0.46948E-01  0.00000E+00  0.37727E-01  0.58731E-01  0.00000E+00  0.41948E-01
        0.46056E-01  0.00000E+00  0.45902E-01  0.58174E-01  0.00000E+00  0.50047E-01  0.46559E-01  0.00000E+00  0.54378E-01  0.58611E-01  0.00000E+00  0.58553E-01  0.47200E-01  0.00000E+00  0.63229E-01  0.58489E-01  0.00000E+00  0.67572E-01
        0.48757E-01  0.00000E+00  0.71880E-01  0.56118E-01  0.00000E+00  0.76872E-01  0.50458E-01  0.00000E+00  0.81767E-01  0.52809E-01  0.00000E+00  0.87625E-01  0.49536E-01  0.00000E+00  0.92499E-01  0.50540E-01  0.00000E+00  0.98425E-01
        0.48344E-01  0.00000E+00  0.10381E+00  0.48134E-01  0.00000E+00  0.10898E+00  0.46841E-01  0.00000E+00  0.11510E+00  0.46475E-01  0.00000E+00  0.12188E+00  0.44822E-01  0.00000E+00  0.12543E+00  0.45042E-01  0.00000E+00  0.12976E+00
        0.12198E+00  0.00000E+00  0.32808E-02  0.10246E+00  0.00000E+00  0.54759E-02  0.11306E+00  0.00000E+00  0.91495E-02  0.10671E+00  0.00000E+00  0.15944E-01  0.93722E-01  0.00000E+00  0.17795E-01  0.10130E+00  0.00000E+00  0.23584E-01
        0.84666E-01  0.00000E+00  0.23627E-01  0.93405E-01  0.00000E+00  0.29640E-01  0.76856E-01  0.00000E+00  0.30332E-01  0.86577E-01  0.00000E+00  0.35746E-01  0.71768E-01  0.00000E+00  0.37601E-01  0.83572E-01  0.00000E+00  0.43089E-01
        0.70670E-01  0.00000E+00  0.45613E-01  0.82489E-01  0.00000E+00  0.50937E-01  0.69861E-01  0.00000E+00  0.53855E-01  0.81821E-01  0.00000E+00  0.59277E-01  0.69663E-01  0.00000E+00  0.62499E-01  0.80458E-01  0.00000E+00  0.67907E-01
        0.70137E-01  0.00000E+00  0.71438E-01  0.77539E-01  0.00000E+00  0.77240E-01  0.69890E-01  0.00000E+00  0.81161E-01  0.73643E-01  0.00000E+00  0.87155E-01  0.68884E-01  0.00000E+00  0.91594E-01  0.69570E-01  0.00000E+00  0.97600E-01
        0.67904E-01  0.00000E+00  0.10302E+00  0.66427E-01  0.00000E+00  0.10788E+00  0.65903E-01  0.00000E+00  0.11404E+00  0.64727E-01  0.00000E+00  0.12080E+00  0.65133E-01  0.00000E+00  0.12428E+00  0.64500E-01  0.00000E+00  0.12848E+00
        0.15242E+00  0.00000E+00  0.33041E-02  0.13702E+00  0.00000E+00  0.58263E-02  0.12668E+00  0.00000E+00  0.11676E-01  0.13759E+00  0.00000E+00  0.15679E-01  0.12046E+00  0.00000E+00  0.18692E-01  0.13161E+00  0.00000E+00  0.22757E-01
        0.11317E+00  0.00000E+00  0.24394E-01  0.12336E+00  0.00000E+00  0.28836E-01  0.10684E+00  0.00000E+00  0.32145E-01  0.11677E+00  0.00000E+00  0.36410E-01  0.99525E-01  0.00000E+00  0.38509E-01  0.11028E+00  0.00000E+00  0.43322E-01
        0.96001E-01  0.00000E+00  0.45810E-01  0.10767E+00  0.00000E+00  0.51101E-01  0.94406E-01  0.00000E+00  0.53531E-01  0.10550E+00  0.00000E+00  0.59323E-01  0.92885E-01  0.00000E+00  0.61817E-01  0.10245E+00  0.00000E+00  0.67891E-01
        0.91603E-01  0.00000E+00  0.70876E-01  0.98108E-01  0.00000E+00  0.77325E-01  0.90200E-01  0.00000E+00  0.81012E-01  0.93264E-01  0.00000E+00  0.87247E-01  0.89037E-01  0.00000E+00  0.91768E-01  0.88753E-01  0.00000E+00  0.97758E-01
        0.87080E-01  0.00000E+00  0.10298E+00  0.86094E-01  0.00000E+00  0.10791E+00  0.84784E-01  0.00000E+00  0.11391E+00  0.84368E-01  0.00000E+00  0.12059E+00  0.83493E-01  0.00000E+00  0.12389E+00  0.83621E-01  0.00000E+00  0.12815E+00
        0.17325E+00  0.00000E+00  0.31845E-02  0.16291E+00  0.00000E+00  0.80154E-02  0.14749E+00  0.00000E+00  0.11486E-01  0.17538E+00  0.00000E+00  0.12977E-01  0.15676E+00  0.00000E+00  0.16172E-01  0.16732E+00  0.00000E+00  0.18571E-01
        0.14669E+00  0.00000E+00  0.21638E-01  0.15058E+00  0.00000E+00  0.29214E-01  0.13728E+00  0.00000E+00  0.29504E-01  0.14320E+00  0.00000E+00  0.35806E-01  0.12876E+00  0.00000E+00  0.36998E-01  0.13419E+00  0.00000E+00  0.43926E-01
        0.12213E+00  0.00000E+00  0.45597E-01  0.13076E+00  0.00000E+00  0.52958E-01  0.11901E+00  0.00000E+00  0.53992E-01  0.12860E+00  0.00000E+00  0.61332E-01  0.11639E+00  0.00000E+00  0.62293E-01  0.12379E+00  0.00000E+00  0.69251E-01
        0.11240E+00  0.00000E+00  0.71464E-01  0.11816E+00  0.00000E+00  0.78582E-01  0.10942E+00  0.00000E+00  0.81712E-01  0.11357E+00  0.00000E+00  0.87902E-01  0.10889E+00  0.00000E+00  0.92289E-01  0.10804E+00  0.00000E+00  0.98296E-01
        0.10740E+00  0.00000E+00  0.10347E+00  0.10531E+00  0.00000E+00  0.10808E+00  0.10433E+00  0.00000E+00  0.11422E+00  0.10386E+00  0.00000E+00  0.12085E+00  0.10372E+00  0.00000E+00  0.12391E+00  0.10340E+00  0.00000E+00  0.12815E+00
        0.19764E+00  0.00000E+00  0.30924E-02  0.21110E+00  0.00000E+00  0.68336E-02  0.18554E+00  0.00000E+00  0.72851E-02  0.20378E+00  0.00000E+00  0.12621E-01  0.19085E+00  0.00000E+00  0.14283E-01  0.19813E+00  0.00000E+00  0.19753E-01
        0.18319E+00  0.00000E+00  0.20843E-01  0.17468E+00  0.00000E+00  0.25089E-01  0.16098E+00  0.00000E+00  0.25506E-01  0.16149E+00  0.00000E+00  0.33786E-01  0.15733E+00  0.00000E+00  0.41385E-01  0.14754E+00  0.00000E+00  0.43339E-01
        0.15737E+00  0.00000E+00  0.50458E-01  0.14286E+00  0.00000E+00  0.50743E-01  0.15301E+00  0.00000E+00  0.58408E-01  0.14209E+00  0.00000E+00  0.58829E-01  0.14205E+00  0.00000E+00  0.65764E-01  0.14200E+00  0.00000E+00  0.72804E-01
        0.13195E+00  0.00000E+00  0.74154E-01  0.13861E+00  0.00000E+00  0.81843E-01  0.12883E+00  0.00000E+00  0.84043E-01  0.13413E+00  0.00000E+00  0.90116E-01  0.12915E+00  0.00000E+00  0.94329E-01  0.12732E+00  0.00000E+00  0.10026E+00
        0.12731E+00  0.00000E+00  0.10521E+00  0.12570E+00  0.00000E+00  0.11002E+00  0.12402E+00  0.00000E+00  0.11603E+00  0.12440E+00  0.00000E+00  0.12263E+00  0.12365E+00  0.00000E+00  0.12544E+00  0.12360E+00  0.00000E+00  0.12963E+00
        0.22315E+00  0.00000E+00  0.33162E-02  0.23474E+00  0.00000E+00  0.78560E-02  0.22298E+00  0.00000E+00  0.12621E-01  0.24527E+00  0.00000E+00  0.12827E-01  0.23231E+00  0.00000E+00  0.17174E-01  0.21551E+00  0.00000E+00  0.17815E-01
        0.20950E+00  0.00000E+00  0.23876E-01  0.19443E+00  0.00000E+00  0.27684E-01  0.18569E+00  0.00000E+00  0.31130E-01  0.17388E+00  0.00000E+00  0.33488E-01  0.18176E+00  0.00000E+00  0.40310E-01  0.16919E+00  0.00000E+00  0.41803E-01
        0.17982E+00  0.00000E+00  0.48925E-01  0.16817E+00  0.00000E+00  0.50722E-01  0.17670E+00  0.00000E+00  0.57918E-01  0.16688E+00  0.00000E+00  0.59835E-01  0.16003E+00  0.00000E+00  0.64825E-01  0.16394E+00  0.00000E+00  0.72079E-01
        0.15361E+00  0.00000E+00  0.73674E-01  0.15983E+00  0.00000E+00  0.80817E-01  0.15048E+00  0.00000E+00  0.83770E-01  0.15528E+00  0.00000E+00  0.89784E-01  0.15110E+00  0.00000E+00  0.94497E-01  0.14771E+00  0.00000E+00  0.99922E-01
        0.14858E+00  0.00000E+00  0.10482E+00  0.14652E+00  0.00000E+00  0.10968E+00  0.14464E+00  0.00000E+00  0.11562E+00  0.14553E+00  0.00000E+00  0.12213E+00  0.14486E+00  0.00000E+00  0.12492E+00  0.14459E+00  0.00000E+00  0.12910E+00
[...]
<PointData>
      <DataArray type="Float32" Name="Velocity vectors"  NumberOfComponents="3"  format="ascii" >
          0.89294E-01  0.00000E+00 -0.45351E-03  0.61494E-01  0.00000E+00 -0.78663E-02  0.39329E-01  0.00000E+00 -0.25615E-02  0.44814E-01  0.00000E+00 -0.37795E-02  0.43737E-02  0.00000E+00 -0.22830E-01  0.51211E-01  0.00000E+00 -0.28514E-01
         -0.19102E-01  0.00000E+00 -0.45079E-01  0.35711E-01  0.00000E+00 -0.50691E-01 -0.81225E-02  0.00000E+00 -0.62565E-01  0.28524E-01  0.00000E+00 -0.71628E-01 -0.11157E-01  0.00000E+00 -0.78830E-01  0.25156E-01  0.00000E+00 -0.82682E-01
         -0.16849E-01  0.00000E+00 -0.86909E-01  0.25286E-01  0.00000E+00 -0.95721E-01 -0.45457E-01  0.00000E+00 -0.92254E-01  0.26324E-01  0.00000E+00 -0.10987E+00 -0.12546E-01  0.00000E+00 -0.10429E+00  0.16085E-01  0.00000E+00 -0.10037E+00
          0.95032E-02  0.00000E+00 -0.10191E+00  0.12169E-01  0.00000E+00 -0.10346E+00  0.10342E-01  0.00000E+00 -0.10503E+00  0.10970E-01  0.00000E+00 -0.10499E+00  0.12142E-01  0.00000E+00 -0.10658E+00  0.10524E-01  0.00000E+00 -0.11068E+00
          0.75673E-02  0.00000E+00 -0.11385E+00  0.87020E-02  0.00000E+00 -0.11201E+00  0.12035E-01  0.00000E+00 -0.11324E+00  0.66056E-02  0.00000E+00 -0.12083E+00  0.40466E-02  0.00000E+00 -0.12613E+00  0.39950E-02  0.00000E+00 -0.12788E+00
          0.10951E+00  0.00000E+00 -0.23225E-02  0.77376E-01  0.00000E+00 -0.12785E-01  0.96605E-01  0.00000E+00 -0.94469E-02  0.89992E-01  0.00000E+00 -0.16415E-01  0.78469E-01  0.00000E+00 -0.16240E-01  0.72065E-01  0.00000E+00 -0.23440E-01
          0.26788E-01  0.00000E+00 -0.39699E-01  0.36421E-01  0.00000E+00 -0.37334E-01  0.29529E-01  0.00000E+00 -0.44462E-01  0.46716E-01  0.00000E+00 -0.43564E-01  0.16070E-01  0.00000E+00 -0.58853E-01  0.34344E-01  0.00000E+00 -0.57141E-01
          0.14576E-01  0.00000E+00 -0.65417E-01  0.33171E-01  0.00000E+00 -0.63788E-01  0.12630E-01  0.00000E+00 -0.77135E-01  0.30079E-01  0.00000E+00 -0.81269E-01 -0.48605E-03  0.00000E+00 -0.79836E-01  0.45073E-01  0.00000E+00 -0.89900E-01
         -0.23615E-01  0.00000E+00 -0.97095E-01  0.53635E-01  0.00000E+00 -0.12210E+00 -0.15092E-02  0.00000E+00 -0.12017E+00  0.28012E-01  0.00000E+00 -0.11632E+00  0.14035E-01  0.00000E+00 -0.12431E+00  0.28884E-01  0.00000E+00 -0.12284E+00
          0.11228E-01  0.00000E+00 -0.12759E+00  0.36443E-01  0.00000E+00 -0.12732E+00  0.12094E-01  0.00000E+00 -0.13401E+00  0.26063E-01  0.00000E+00 -0.13442E+00  0.19963E-01  0.00000E+00 -0.14115E+00  0.22419E-01  0.00000E+00 -0.14178E+00
          0.13017E+00  0.00000E+00 -0.95368E-03  0.12019E+00  0.00000E+00 -0.65241E-02  0.15495E+00  0.00000E+00 -0.16696E-01  0.14196E+00  0.00000E+00 -0.19323E-01  0.10977E+00  0.00000E+00 -0.20612E-01  0.12126E+00  0.00000E+00 -0.28343E-01
          0.97709E-01  0.00000E+00 -0.23389E-01  0.10451E+00  0.00000E+00 -0.32390E-01  0.58748E-01  0.00000E+00 -0.46201E-01  0.64697E-01  0.00000E+00 -0.46776E-01  0.50789E-01  0.00000E+00 -0.52530E-01  0.61100E-01  0.00000E+00 -0.53154E-01
          0.42238E-01  0.00000E+00 -0.60457E-01  0.56938E-01  0.00000E+00 -0.63331E-01  0.45390E-01  0.00000E+00 -0.67543E-01  0.58704E-01  0.00000E+00 -0.75234E-01  0.37429E-01  0.00000E+00 -0.78757E-01  0.70869E-01  0.00000E+00 -0.83123E-01
          0.17946E-01  0.00000E+00 -0.88025E-01  0.86209E-01  0.00000E+00 -0.10019E+00  0.75170E-02  0.00000E+00 -0.12011E+00  0.72520E-01  0.00000E+00 -0.11356E+00  0.15739E-01  0.00000E+00 -0.12971E+00  0.52614E-01  0.00000E+00 -0.13136E+00
          0.27053E-01  0.00000E+00 -0.13798E+00  0.36889E-01  0.00000E+00 -0.13712E+00  0.31040E-01  0.00000E+00 -0.13853E+00  0.33675E-01  0.00000E+00 -0.14044E+00  0.27979E-01  0.00000E+00 -0.14424E+00  0.30922E-01  0.00000E+00 -0.14508E+00
          0.19210E+00  0.00000E+00 -0.13058E-02  0.16736E+00  0.00000E+00 -0.20239E-02  0.18426E+00  0.00000E+00 -0.94793E-02  0.15136E+00  0.00000E+00 -0.21846E-01  0.14368E+00  0.00000E+00 -0.13969E-01  0.15093E+00  0.00000E+00 -0.20942E-01
          0.13083E+00  0.00000E+00 -0.25495E-01  0.13532E+00  0.00000E+00 -0.30340E-01  0.11063E+00  0.00000E+00 -0.37775E-01  0.10908E+00  0.00000E+00 -0.43849E-01  0.76341E-01  0.00000E+00 -0.54907E-01  0.87207E-01  0.00000E+00 -0.54837E-01
          0.73448E-01  0.00000E+00 -0.61941E-01  0.86235E-01  0.00000E+00 -0.65275E-01  0.72188E-01  0.00000E+00 -0.73584E-01  0.85899E-01  0.00000E+00 -0.74860E-01  0.66317E-01  0.00000E+00 -0.84499E-01  0.92780E-01  0.00000E+00 -0.80690E-01
          0.49596E-01  0.00000E+00 -0.93158E-01  0.10805E+00  0.00000E+00 -0.94424E-01  0.32950E-01  0.00000E+00 -0.11546E+00  0.10681E+00  0.00000E+00 -0.11386E+00  0.39381E-01  0.00000E+00 -0.13906E+00  0.70612E-01  0.00000E+00 -0.13179E+00
          0.52933E-01  0.00000E+00 -0.14006E+00  0.42496E-01  0.00000E+00 -0.14380E+00  0.44404E-01  0.00000E+00 -0.14349E+00  0.39958E-01  0.00000E+00 -0.14595E+00  0.43175E-01  0.00000E+00 -0.14998E+00  0.41058E-01  0.00000E+00 -0.15102E+00
          0.24240E+00  0.00000E+00 -0.13267E-02  0.21338E+00  0.00000E+00 -0.66801E-02  0.20758E+00  0.00000E+00 -0.10009E-01  0.21109E+00  0.00000E+00 -0.10572E-01  0.16703E+00  0.00000E+00 -0.29823E-01  0.17792E+00  0.00000E+00 -0.26020E-01
          0.16138E+00  0.00000E+00 -0.30349E-01  0.17268E+00  0.00000E+00 -0.40597E-01  0.15311E+00  0.00000E+00 -0.33898E-01  0.16482E+00  0.00000E+00 -0.48066E-01  0.12865E+00  0.00000E+00 -0.46452E-01  0.14302E+00  0.00000E+00 -0.57996E-01
          0.10658E+00  0.00000E+00 -0.62421E-01  0.12897E+00  0.00000E+00 -0.72034E-01  0.10576E+00  0.00000E+00 -0.76819E-01  0.12393E+00  0.00000E+00 -0.85262E-01  0.97064E-01  0.00000E+00 -0.93643E-01  0.12001E+00  0.00000E+00 -0.93001E-01
          0.79893E-01  0.00000E+00 -0.10728E+00  0.13404E+00  0.00000E+00 -0.10535E+00  0.60668E-01  0.00000E+00 -0.12615E+00  0.12908E+00  0.00000E+00 -0.11968E+00  0.71391E-01  0.00000E+00 -0.14350E+00  0.85877E-01  0.00000E+00 -0.13174E+00
          0.67619E-01  0.00000E+00 -0.14454E+00  0.62127E-01  0.00000E+00 -0.14455E+00  0.53410E-01  0.00000E+00 -0.14560E+00  0.55145E-01  0.00000E+00 -0.14811E+00  0.52152E-01  0.00000E+00 -0.15288E+00  0.54014E-01  0.00000E+00 -0.15397E+00
          0.25644E+00  0.00000E+00 -0.29797E-03  0.24778E+00  0.00000E+00 -0.49274E-02  0.21490E+00  0.00000E+00 -0.13801E-01  0.27434E+00  0.00000E+00 -0.98348E-02  0.21996E+00  0.00000E+00 -0.18179E-01  0.24280E+00  0.00000E+00 -0.32026E-01
          0.20701E+00  0.00000E+00 -0.16839E-01  0.23120E+00  0.00000E+00 -0.25861E-01  0.20039E+00  0.00000E+00 -0.38824E-01  0.20410E+00  0.00000E+00 -0.49442E-01  0.18386E+00  0.00000E+00 -0.54667E-01  0.19050E+00  0.00000E+00 -0.62838E-01
          0.16684E+00  0.00000E+00 -0.68189E-01  0.16567E+00  0.00000E+00 -0.77777E-01  0.14827E+00  0.00000E+00 -0.84771E-01  0.16750E+00  0.00000E+00 -0.86480E-01  0.13640E+00  0.00000E+00 -0.10283E+00  0.15477E+00  0.00000E+00 -0.10305E+00
          0.11690E+00  0.00000E+00 -0.12313E+00  0.15677E+00  0.00000E+00 -0.11361E+00  0.86263E-01  0.00000E+00 -0.13962E+00  0.14965E+00  0.00000E+00 -0.13461E+00  0.99680E-01  0.00000E+00 -0.15780E+00  0.10005E+00  0.00000E+00 -0.14595E+00
          0.98055E-01  0.00000E+00 -0.15508E+00  0.75432E-01  0.00000E+00 -0.16216E+00  0.70420E-01  0.00000E+00 -0.16074E+00  0.68812E-01  0.00000E+00 -0.16291E+00  0.68597E-01  0.00000E+00 -0.16759E+00  0.67588E-01  0.00000E+00 -0.16798E+00
          0.29715E+00  0.00000E+00  0.50111E-03  0.33318E+00  0.00000E+00 -0.75159E-02  0.27343E+00  0.00000E+00 -0.10997E-01  0.30661E+00  0.00000E+00 -0.24045E-01  0.29816E+00  0.00000E+00 -0.21987E-01  0.29956E+00  0.00000E+00 -0.20751E-01
          0.27680E+00  0.00000E+00 -0.28964E-01  0.24868E+00  0.00000E+00 -0.40104E-01  0.22839E+00  0.00000E+00 -0.43388E-01  0.24378E+00  0.00000E+00 -0.45040E-01  0.22029E+00  0.00000E+00 -0.48993E-01  0.22199E+00  0.00000E+00 -0.57232E-01
          0.21685E+00  0.00000E+00 -0.56115E-01  0.18596E+00  0.00000E+00 -0.78198E-01  0.18880E+00  0.00000E+00 -0.70966E-01  0.16981E+00  0.00000E+00 -0.90448E-01  0.17860E+00  0.00000E+00 -0.89267E-01  0.18744E+00  0.00000E+00 -0.77465E-01
          0.14691E+00  0.00000E+00 -0.12237E+00  0.17574E+00  0.00000E+00 -0.98711E-01  0.11041E+00  0.00000E+00 -0.14296E+00  0.17596E+00  0.00000E+00 -0.13641E+00  0.12754E+00  0.00000E+00 -0.15892E+00  0.10606E+00  0.00000E+00 -0.15263E+00
          0.11410E+00  0.00000E+00 -0.16346E+00  0.93432E-01  0.00000E+00 -0.16304E+00  0.79040E-01  0.00000E+00 -0.16513E+00  0.86197E-01  0.00000E+00 -0.16937E+00  0.81706E-01  0.00000E+00 -0.17116E+00  0.82829E-01  0.00000E+00 -0.17201E+00
          0.33932E+00  0.00000E+00 -0.11525E-04  0.34681E+00  0.00000E+00 -0.71241E-02  0.33535E+00  0.00000E+00 -0.51180E-03  0.35382E+00  0.00000E+00 -0.69557E-02  0.34087E+00  0.00000E+00 -0.17035E-01  0.31187E+00  0.00000E+00 -0.20694E-01
          0.29973E+00  0.00000E+00 -0.28485E-01  0.27093E+00  0.00000E+00 -0.28396E-01  0.25115E+00  0.00000E+00 -0.50508E-01  0.23983E+00  0.00000E+00 -0.44860E-01  0.25484E+00  0.00000E+00 -0.55401E-01  0.23882E+00  0.00000E+00 -0.53497E-01
          0.24558E+00  0.00000E+00 -0.61668E-01  0.22513E+00  0.00000E+00 -0.65847E-01  0.23940E+00  0.00000E+00 -0.78922E-01  0.22742E+00  0.00000E+00 -0.74927E-01  0.18567E+00  0.00000E+00 -0.96513E-01  0.22879E+00  0.00000E+00 -0.92742E-01
          0.18055E+00  0.00000E+00 -0.12136E+00  0.21322E+00  0.00000E+00 -0.10580E+00  0.15604E+00  0.00000E+00 -0.13610E+00  0.21471E+00  0.00000E+00 -0.13501E+00  0.17214E+00  0.00000E+00 -0.14790E+00  0.11746E+00  0.00000E+00 -0.15652E+00
          0.13796E+00  0.00000E+00 -0.16565E+00  0.10996E+00  0.00000E+00 -0.16691E+00  0.94872E-01  0.00000E+00 -0.16850E+00  0.10607E+00  0.00000E+00 -0.17449E+00  0.10107E+00  0.00000E+00 -0.17513E+00  0.10127E+00  0.00000E+00 -0.17665E+00
          0.35519E+00  0.00000E+00  0.31531E-03  0.36641E+00  0.00000E+00 -0.88610E-02  0.36425E+00  0.00000E+00 -0.69463E-02  0.39358E+00  0.00000E+00 -0.27647E-01  0.35604E+00  0.00000E+00 -0.12679E-01  0.35488E+00  0.00000E+00 -0.10087E-01
          0.33688E+00  0.00000E+00 -0.23734E-01  0.32147E+00  0.00000E+00 -0.24057E-01  0.29427E+00  0.00000E+00 -0.35936E-01  0.27744E+00  0.00000E+00 -0.41030E-01  0.29716E+00  0.00000E+00 -0.47202E-01  0.27250E+00  0.00000E+00 -0.51967E-01
          0.28341E+00  0.00000E+00 -0.55873E-01  0.25148E+00  0.00000E+00 -0.81784E-01  0.26844E+00  0.00000E+00 -0.85626E-01  0.26316E+00  0.00000E+00 -0.79880E-01  0.24275E+00  0.00000E+00 -0.91468E-01  0.25187E+00  0.00000E+00 -0.92578E-01
          0.21705E+00  0.00000E+00 -0.12430E+00  0.24451E+00  0.00000E+00 -0.10108E+00  0.18858E+00  0.00000E+00 -0.13739E+00  0.24502E+00  0.00000E+00 -0.13293E+00  0.19783E+00  0.00000E+00 -0.15068E+00  0.14743E+00  0.00000E+00 -0.15341E+00
          0.16721E+00  0.00000E+00 -0.16121E+00  0.13732E+00  0.00000E+00 -0.16370E+00  0.11880E+00  0.00000E+00 -0.16670E+00  0.13053E+00  0.00000E+00 -0.17325E+00  0.12212E+00  0.00000E+00 -0.17354E+00  0.12279E+00  0.00000E+00 -0.17570E+00
          0.38589E+00  0.00000E+00 -0.48381E-03  0.39565E+00  0.00000E+00 -0.46914E-02  0.45111E+00  0.00000E+00 -0.19161E-01  0.41746E+00  0.00000E+00 -0.17857E-01  0.42533E+00  0.00000E+00 -0.29642E-01  0.40348E+00  0.00000E+00 -0.26326E-01
          0.37741E+00  0.00000E+00 -0.33334E-01  0.36725E+00  0.00000E+00 -0.15112E-01  0.34359E+00  0.00000E+00 -0.28212E-01  0.33338E+00  0.00000E+00 -0.30730E-01  0.31913E+00  0.00000E+00 -0.55516E-01  0.30754E+00  0.00000E+00 -0.59532E-01
          0.30352E+00  0.00000E+00 -0.56290E-01  0.30468E+00  0.00000E+00 -0.63504E-01  0.26998E+00  0.00000E+00 -0.77549E-01  0.29027E+00  0.00000E+00 -0.71144E-01  0.26021E+00  0.00000E+00 -0.85620E-01  0.28455E+00  0.00000E+00 -0.86374E-01
          0.25659E+00  0.00000E+00 -0.10446E+00  0.27899E+00  0.00000E+00 -0.89513E-01  0.22084E+00  0.00000E+00 -0.12302E+00  0.27214E+00  0.00000E+00 -0.11903E+00  0.22302E+00  0.00000E+00 -0.13796E+00  0.16651E+00  0.00000E+00 -0.14377E+00
          0.18825E+00  0.00000E+00 -0.15161E+00  0.16222E+00  0.00000E+00 -0.15130E+00  0.13898E+00  0.00000E+00 -0.15587E+00  0.15297E+00  0.00000E+00 -0.16301E+00  0.14297E+00  0.00000E+00 -0.16289E+00  0.14346E+00  0.00000E+00 -0.16553E+00
          0.41723E+00  0.00000E+00  0.30760E-03  0.46807E+00  0.00000E+00 -0.51156E-02  0.45603E+00  0.00000E+00 -0.21841E-02  0.43902E+00  0.00000E+00 -0.54230E-02  0.43882E+00  0.00000E+00 -0.14573E-01  0.41745E+00  0.00000E+00 -0.14150E-01
          0.41321E+00  0.00000E+00 -0.25810E-01  0.41129E+00  0.00000E+00 -0.33842E-01  0.39213E+00  0.00000E+00 -0.45424E-01  0.38415E+00  0.00000E+00 -0.41419E-01  0.36264E+00  0.00000E+00 -0.37494E-01  0.34425E+00  0.00000E+00 -0.45049E-01
          0.32370E+00  0.00000E+00 -0.45816E-01  0.33768E+00  0.00000E+00 -0.54169E-01  0.31200E+00  0.00000E+00 -0.69708E-01  0.33553E+00  0.00000E+00 -0.67042E-01  0.29261E+00  0.00000E+00 -0.89885E-01  0.31543E+00  0.00000E+00 -0.81065E-01
          0.28650E+00  0.00000E+00 -0.10760E+00  0.30443E+00  0.00000E+00 -0.91119E-01  0.25347E+00  0.00000E+00 -0.12263E+00  0.30012E+00  0.00000E+00 -0.11504E+00  0.25210E+00  0.00000E+00 -0.13343E+00  0.19107E+00  0.00000E+00 -0.14270E+00
          0.21439E+00  0.00000E+00 -0.14726E+00  0.18564E+00  0.00000E+00 -0.14927E+00  0.16132E+00  0.00000E+00 -0.15399E+00  0.17560E+00  0.00000E+00 -0.16105E+00  0.16408E+00  0.00000E+00 -0.16127E+00  0.16466E+00  0.00000E+00 -0.16376E+00
          0.48103E+00  0.00000E+00 -0.30570E-03  0.50736E+00  0.00000E+00 -0.58052E-02  0.49347E+00  0.00000E+00 -0.38663E-02  0.46253E+00  0.00000E+00 -0.24958E-01  0.46376E+00  0.00000E+00 -0.23213E-01  0.45642E+00  0.00000E+00 -0.19421E-01
          0.45195E+00  0.00000E+00 -0.21028E-01  0.43840E+00  0.00000E+00 -0.25843E-01  0.43055E+00  0.00000E+00 -0.31439E-01  0.41979E+00  0.00000E+00 -0.37341E-01  0.40881E+00  0.00000E+00 -0.50724E-01  0.39048E+00  0.00000E+00 -0.63569E-01
          0.37646E+00  0.00000E+00 -0.50382E-01  0.37275E+00  0.00000E+00 -0.61062E-01  0.35803E+00  0.00000E+00 -0.72444E-01  0.37862E+00  0.00000E+00 -0.66232E-01  0.33002E+00  0.00000E+00 -0.96613E-01  0.34401E+00  0.00000E+00 -0.83960E-01
          0.31368E+00  0.00000E+00 -0.10888E+00  0.33303E+00  0.00000E+00 -0.93826E-01  0.28475E+00  0.00000E+00 -0.12116E+00  0.32695E+00  0.00000E+00 -0.11281E+00  0.28016E+00  0.00000E+00 -0.12834E+00  0.21600E+00  0.00000E+00 -0.14342E+00
          0.23765E+00  0.00000E+00 -0.14267E+00  0.20959E+00  0.00000E+00 -0.14569E+00  0.18211E+00  0.00000E+00 -0.15233E+00  0.19677E+00  0.00000E+00 -0.15873E+00  0.18398E+00  0.00000E+00 -0.15916E+00  0.18432E+00  0.00000E+00 -0.16199E+00
          0.52679E+00  0.00000E+00 -0.71677E-03  0.54690E+00  0.00000E+00 -0.47895E-02  0.53240E+00  0.00000E+00 -0.50225E-02  0.50341E+00  0.00000E+00 -0.22875E-01  0.50326E+00  0.00000E+00 -0.20275E-01  0.49104E+00  0.00000E+00 -0.20077E-01
          0.48420E+00  0.00000E+00 -0.29570E-01  0.47576E+00  0.00000E+00 -0.35079E-01  0.46978E+00  0.00000E+00 -0.33831E-01  0.45317E+00  0.00000E+00 -0.37507E-01  0.44269E+00  0.00000E+00 -0.36537E-01  0.42709E+00  0.00000E+00 -0.43687E-01
          0.41383E+00  0.00000E+00 -0.49324E-01  0.38888E+00  0.00000E+00 -0.58409E-01  0.39491E+00  0.00000E+00 -0.79756E-01  0.36655E+00  0.00000E+00 -0.81086E-01  0.41322E+00  0.00000E+00 -0.81738E-01  0.35573E+00  0.00000E+00 -0.89561E-01
          0.34083E+00  0.00000E+00 -0.11470E+00  0.35744E+00  0.00000E+00 -0.96787E-01  0.30648E+00  0.00000E+00 -0.11972E+00  0.34692E+00  0.00000E+00 -0.11443E+00  0.30169E+00  0.00000E+00 -0.12947E+00  0.23663E+00  0.00000E+00 -0.14597E+00
          0.26063E+00  0.00000E+00 -0.14379E+00  0.23354E+00  0.00000E+00 -0.14772E+00  0.20325E+00  0.00000E+00 -0.15492E+00  0.21772E+00  0.00000E+00 -0.16118E+00  0.20389E+00  0.00000E+00 -0.16194E+00  0.20410E+00  0.00000E+00 -0.16446E+00
          0.56306E+00  0.00000E+00 -0.29108E-03  0.58024E+00  0.00000E+00 -0.43060E-02  0.57151E+00  0.00000E+00 -0.66486E-02  0.54479E+00  0.00000E+00 -0.19842E-01  0.54461E+00  0.00000E+00 -0.18955E-01  0.52779E+00  0.00000E+00 -0.20574E-01
          0.52232E+00  0.00000E+00 -0.28005E-01  0.51104E+00  0.00000E+00 -0.36412E-01  0.50088E+00  0.00000E+00 -0.36658E-01  0.49187E+00  0.00000E+00 -0.43720E-01  0.48531E+00  0.00000E+00 -0.44537E-01  0.46856E+00  0.00000E+00 -0.46686E-01
          0.45810E+00  0.00000E+00 -0.49941E-01  0.42766E+00  0.00000E+00 -0.56422E-01  0.41830E+00  0.00000E+00 -0.57363E-01  0.38866E+00  0.00000E+00 -0.72729E-01  0.43066E+00  0.00000E+00 -0.74917E-01  0.37923E+00  0.00000E+00 -0.82554E-01
          0.35872E+00  0.00000E+00 -0.10020E+00  0.37860E+00  0.00000E+00 -0.87877E-01  0.32254E+00  0.00000E+00 -0.11280E+00  0.36410E+00  0.00000E+00 -0.10623E+00  0.32228E+00  0.00000E+00 -0.12119E+00  0.25412E+00  0.00000E+00 -0.14406E+00
          0.28058E+00  0.00000E+00 -0.13893E+00  0.25563E+00  0.00000E+00 -0.14332E+00  0.22162E+00  0.00000E+00 -0.15223E+00  0.23729E+00  0.00000E+00 -0.15883E+00  0.22244E+00  0.00000E+00 -0.15948E+00  0.22277E+00  0.00000E+00 -0.16182E+00
          0.59554E+00  0.00000E+00 -0.29653E-03  0.61344E+00  0.00000E+00 -0.46109E-02  0.61180E+00  0.00000E+00 -0.95215E-02  0.58606E+00  0.00000E+00 -0.17138E-01  0.58821E+00  0.00000E+00 -0.19624E-01  0.56723E+00  0.00000E+00 -0.21418E-01
          0.56247E+00  0.00000E+00 -0.26541E-01  0.54988E+00  0.00000E+00 -0.37030E-01  0.53978E+00  0.00000E+00 -0.37297E-01  0.52547E+00  0.00000E+00 -0.44719E-01  0.51777E+00  0.00000E+00 -0.46503E-01  0.50456E+00  0.00000E+00 -0.50704E-01
          0.49390E+00  0.00000E+00 -0.50705E-01  0.48054E+00  0.00000E+00 -0.65454E-01  0.45714E+00  0.00000E+00 -0.56986E-01  0.44918E+00  0.00000E+00 -0.70768E-01  0.41030E+00  0.00000E+00 -0.80173E-01  0.40881E+00  0.00000E+00 -0.63621E-01
          0.37964E+00  0.00000E+00 -0.86899E-01  0.40452E+00  0.00000E+00 -0.77846E-01  0.34539E+00  0.00000E+00 -0.10108E+00  0.38821E+00  0.00000E+00 -0.95417E-01  0.34824E+00  0.00000E+00 -0.10750E+00  0.27858E+00  0.00000E+00 -0.14019E+00
          0.30740E+00  0.00000E+00 -0.12882E+00  0.28084E+00  0.00000E+00 -0.13523E+00  0.24425E+00  0.00000E+00 -0.14592E+00  0.26021E+00  0.00000E+00 -0.15373E+00  0.24409E+00  0.00000E+00 -0.15434E+00  0.24440E+00  0.00000E+00 -0.15703E+00
          0.63240E+00  0.00000E+00 -0.44692E-03  0.65201E+00  0.00000E+00 -0.56315E-02  0.65205E+00  0.00000E+00 -0.13430E-01  0.62721E+00  0.00000E+00 -0.14960E-01  0.63380E+00  0.00000E+00 -0.21859E-01  0.60899E+00  0.00000E+00 -0.21851E-01
          0.60306E+00  0.00000E+00 -0.25392E-01  0.59093E+00  0.00000E+00 -0.37521E-01  0.58091E+00  0.00000E+00 -0.37880E-01  0.56363E+00  0.00000E+00 -0.45298E-01  0.55539E+00  0.00000E+00 -0.47460E-01  0.53985E+00  0.00000E+00 -0.53637E-01
          0.52813E+00  0.00000E+00 -0.55521E-01  0.51295E+00  0.00000E+00 -0.61603E-01  0.49770E+00  0.00000E+00 -0.64155E-01  0.47824E+00  0.00000E+00 -0.64457E-01  0.45448E+00  0.00000E+00 -0.76042E-01  0.42434E+00  0.00000E+00 -0.75833E-01
          0.40475E+00  0.00000E+00 -0.99978E-01  0.43201E+00  0.00000E+00 -0.88786E-01  0.38188E+00  0.00000E+00 -0.10685E+00  0.42057E+00  0.00000E+00 -0.10014E+00  0.38151E+00  0.00000E+00 -0.11047E+00  0.31775E+00  0.00000E+00 -0.14380E+00
          0.34546E+00  0.00000E+00 -0.12643E+00  0.31698E+00  0.00000E+00 -0.13637E+00  0.27566E+00  0.00000E+00 -0.14844E+00  0.29007E+00  0.00000E+00 -0.15578E+00  0.27280E+00  0.00000E+00 -0.15797E+00  0.27233E+00  0.00000E+00 -0.16102E+00
          0.68069E+00  0.00000E+00  0.23906E-03  0.68473E+00  0.00000E+00 -0.17019E-02  0.71063E+00  0.00000E+00 -0.84202E-02  0.66229E+00  0.00000E+00 -0.99384E-02  0.68965E+00  0.00000E+00 -0.28064E-01  0.64836E+00  0.00000E+00 -0.19418E-01