<?xml version="1.0"?>
<VTKFile type="UnstructuredGrid" version="0.1" byte_order="LittleEndian" compressor="vtkZLibDataCompressor">
<UnstructuredGrid>
  <Piece NumberOfPoints="1800"        NumberOfCells="1"      >
    <Points>
      <DataArray type="Float32" NumberOfComponents="3" format="ascii" >
        0.73785E-02  0.00000E+00  0.32476E-02  0.60543E-02  0.00000E+00  0.11853E-01  0.58488E-02  0.00000E+00  0.20095E-01  0.59622E-02  0.00000E+00  0.28381E-01  0.59383E-02  0.00000E+00  0.36624E-01  0.59225E-02  0.00000E+00  0.44906E-01
        0.59002E-02  0.00000E+00  0.53209E-01  0.58732E-02  0.00000E+00  0.61549E-01  0.58430E-02  0.00000E+00  0.69930E-01  0.58109E-02  0.00000E+00  0.78357E-01  0.57773E-02  0.00000E+00  0.86832E-01  0.57432E-02  0.00000E+00  0.95358E-01
        0.57090E-02  0.00000E+00  0.10393E+00  0.56749E-02  0.00000E+00  0.11256E+00  0.56413E-02  0.00000E+00  0.12124E+00  0.56082E-02  0.00000E+00  0.12998E+00  0.55758E-02  0.00000E+00  0.13876E+00  0.55442E-02  0.00000E+00  0.14759E+00
        0.55135E-02  0.00000E+00  0.15647E+00  0.54843E-02  0.00000E+00  0.16540E+00  0.54562E-02  0.00000E+00  0.17438E+00  0.54304E-02  0.00000E+00  0.18340E+00  0.54059E-02  0.00000E+00  0.19246E+00  0.53846E-02  0.00000E+00  0.20157E+00
        0.53646E-02  0.00000E+00  0.21070E+00  0.53484E-02  0.00000E+00  0.21987E+00  0.53346E-02  0.00000E+00  0.22906E+00  0.53183E-02  0.00000E+00  0.23826E+00  0.53278E-02  0.00000E+00  0.24760E+00  0.51712E-02  0.00000E+00  0.25645E+00
        0.19790E-01  0.00000E+00  0.42611E-02  0.17957E-01  0.00000E+00  0.12756E-01  0.17856E-01  0.00000E+00  0.20801E-01  0.17966E-01  0.00000E+00  0.28897E-01  0.17869E-01  0.00000E+00  0.37073E-01  0.17825E-01  0.00000E+00  0.45282E-01
        0.17743E-01  0.00000E+00  0.53526E-01  0.17659E-01  0.00000E+00  0.61829E-01  0.17568E-01  0.00000E+00  0.70179E-01  0.17474E-01  0.00000E+00  0.78582E-01  0.17378E-01  0.00000E+00  0.87038E-01  0.17282E-01  0.00000E+00  0.95545E-01
        0.17187E-01  0.00000E+00  0.10410E+00  0.17092E-01  0.00000E+00  0.11272E+00  0.17000E-01  0.00000E+00  0.12138E+00  0.16909E-01  0.00000E+00  0.13009E+00  0.16820E-01  0.00000E+00  0.13886E+00  0.16733E-01  0.00000E+00  0.14767E+00
        0.16649E-01  0.00000E+00  0.15653E+00  0.16568E-01  0.00000E+00  0.16544E+00  0.16490E-01  0.00000E+00  0.17440E+00  0.16417E-01  0.00000E+00  0.18340E+00  0.16348E-01  0.00000E+00  0.19244E+00  0.16286E-01  0.00000E+00  0.20152E+00
        0.16229E-01  0.00000E+00  0.21063E+00  0.16179E-01  0.00000E+00  0.21978E+00  0.16137E-01  0.00000E+00  0.22896E+00  0.16088E-01  0.00000E+00  0.23811E+00  0.16059E-01  0.00000E+00  0.24747E+00  0.15961E-01  0.00000E+00  0.25626E+00
        0.31709E-01  0.00000E+00  0.43785E-02  0.30172E-01  0.00000E+00  0.13025E-01  0.30066E-01  0.00000E+00  0.21110E-01  0.30087E-01  0.00000E+00  0.29265E-01  0.29964E-01  0.00000E+00  0.37490E-01  0.29851E-01  0.00000E+00  0.45717E-01
        0.29707E-01  0.00000E+00  0.53983E-01  0.29553E-01  0.00000E+00  0.62298E-01  0.29393E-01  0.00000E+00  0.70653E-01  0.29229E-01  0.00000E+00  0.79057E-01  0.29064E-01  0.00000E+00  0.87510E-01  0.28900E-01  0.00000E+00  0.96011E-01
        0.28737E-01  0.00000E+00  0.10456E+00  0.28576E-01  0.00000E+00  0.11316E+00  0.28417E-01  0.00000E+00  0.12181E+00  0.28262E-01  0.00000E+00  0.13051E+00  0.28109E-01  0.00000E+00  0.13926E+00  0.27961E-01  0.00000E+00  0.14806E+00
        0.27818E-01  0.00000E+00  0.15691E+00  0.27680E-01  0.00000E+00  0.16580E+00  0.27549E-01  0.00000E+00  0.17473E+00  0.27425E-01  0.00000E+00  0.18372E+00  0.27310E-01  0.00000E+00  0.19273E+00  0.27205E-01  0.00000E+00  0.20180E+00
        0.27109E-01  0.00000E+00  0.21089E+00  0.27026E-01  0.00000E+00  0.22002E+00  0.26952E-01  0.00000E+00  0.22919E+00  0.26889E-01  0.00000E+00  0.23832E+00  0.26840E-01  0.00000E+00  0.24769E+00  0.26802E-01  0.00000E+00  0.25640E+00
        0.43542E-01  0.00000E+00  0.43756E-02  0.42468E-01  0.00000E+00  0.13092E-01  0.42304E-01  0.00000E+00  0.21207E-01  0.42298E-01  0.00000E+00  0.29411E-01  0.42148E-01  0.00000E+00  0.37663E-01  0.41989E-01  0.00000E+00  0.45915E-01
        0.41794E-01  0.00000E+00  0.54203E-01  0.41581E-01  0.00000E+00  0.62531E-01  0.41359E-01  0.00000E+00  0.70897E-01  0.41131E-01  0.00000E+00  0.79308E-01  0.40901E-01  0.00000E+00  0.87764E-01  0.40671E-01  0.00000E+00  0.96265E-01
        0.40443E-01  0.00000E+00  0.10481E+00  0.40217E-01  0.00000E+00  0.11341E+00  0.39995E-01  0.00000E+00  0.12205E+00  0.39777E-01  0.00000E+00  0.13075E+00  0.39564E-01  0.00000E+00  0.13948E+00  0.39356E-01  0.00000E+00  0.14827E+00
        0.39155E-01  0.00000E+00  0.15710E+00  0.38962E-01  0.00000E+00  0.16598E+00  0.38778E-01  0.00000E+00  0.17489E+00  0.38604E-01  0.00000E+00  0.18386E+00  0.38442E-01  0.00000E+00  0.19285E+00  0.38293E-01  0.00000E+00  0.20189E+00
        0.38158E-01  0.00000E+00  0.21096E+00  0.38039E-01  0.00000E+00  0.22007E+00  0.37936E-01  0.00000E+00  0.22921E+00  0.37847E-01  0.00000E+00  0.23831E+00  0.37784E-01  0.00000E+00  0.24762E+00  0.37720E-01  0.00000E+00  0.25635E+00
        0.55325E-01  0.00000E+00  0.43838E-02  0.54669E-01  0.00000E+00  0.13123E-01  0.54502E-01  0.00000E+00  0.21252E-01  0.54453E-01  0.00000E+00  0.29464E-01  0.54283E-01  0.00000E+00  0.37722E-01  0.54079E-01  0.00000E+00  0.45984E-01
        0.53833E-01  0.00000E+00  0.54280E-01  0.53563E-01  0.00000E+00  0.62617E-01  0.53281E-01  0.00000E+00  0.70990E-01  0.52990E-01  0.00000E+00  0.79407E-01  0.52697E-01  0.00000E+00  0.87866E-01  0.52403E-01  0.00000E+00  0.96370E-01
        0.52111E-01  0.00000E+00  0.10492E+00  0.51821E-01  0.00000E+00  0.11351E+00  0.51536E-01  0.00000E+00  0.12215E+00  0.51255E-01  0.00000E+00  0.13084E+00  0.50980E-01  0.00000E+00  0.13957E+00  0.50712E-01  0.00000E+00  0.14835E+00
        0.50452E-01  0.00000E+00  0.15717E+00  0.50202E-01  0.00000E+00  0.16604E+00  0.49964E-01  0.00000E+00  0.17494E+00  0.49738E-01  0.00000E+00  0.18389E+00  0.49526E-01  0.00000E+00  0.19288E+00  0.49330E-01  0.00000E+00  0.20190E+00
        0.49152E-01  0.00000E+00  0.21096E+00  0.48994E-01  0.00000E+00  0.22005E+00  0.48859E-01  0.00000E+00  0.22918E+00  0.48742E-01  0.00000E+00  0.23828E+00  0.48666E-01  0.00000E+00  0.24759E+00  0.48611E-01  0.00000E+00  0.25627E+00
        0.67108E-01  0.00000E+00  0.43770E-02  0.66832E-01  0.00000E+00  0.13126E-01  0.66691E-01  0.00000E+00  0.21264E-01  0.66604E-01  0.00000E+00  0.29478E-01  0.66412E-01  0.00000E+00  0.37733E-01  0.66164E-01  0.00000E+00  0.45995E-01
        0.65868E-01  0.00000E+00  0.54291E-01  0.65544E-01  0.00000E+00  0.62628E-01  0.65203E-01  0.00000E+00  0.71002E-01  0.64853E-01  0.00000E+00  0.79419E-01  0.64499E-01  0.00000E+00  0.87879E-01  0.64144E-01  0.00000E+00  0.96382E-01
        0.63791E-01  0.00000E+00  0.10493E+00  0.63440E-01  0.00000E+00  0.11352E+00  0.63094E-01  0.00000E+00  0.12216E+00  0.62754E-01  0.00000E+00  0.13084E+00  0.62420E-01  0.00000E+00  0.13957E+00  0.62096E-01  0.00000E+00  0.14834E+00
        0.61781E-01  0.00000E+00  0.15715E+00  0.61477E-01  0.00000E+00  0.16601E+00  0.61187E-01  0.00000E+00  0.17490E+00  0.60912E-01  0.00000E+00  0.18384E+00  0.60654E-01  0.00000E+00  0.19282E+00  0.60416E-01  0.00000E+00  0.20183E+00
        0.60201E-01  0.00000E+00  0.21087E+00  0.60009E-01  0.00000E+00  0.21995E+00  0.59847E-01  0.00000E+00  0.22906E+00  0.59713E-01  0.00000E+00  0.23814E+00  0.59619E-01  0.00000E+00  0.24742E+00  0.59546E-01  0.00000E+00  0.25609E+00
        0.78918E-01  0.00000E+00  0.43653E-02  0.78970E-01  0.00000E+00  0.13112E-01  0.78886E-01  0.00000E+00  0.21254E-01  0.78769E-01  0.00000E+00  0.29460E-01  0.78553E-01  0.00000E+00  0.37705E-01  0.78260E-01  0.00000E+00  0.45959E-01
        0.77913E-01  0.00000E+00  0.54248E-01  0.77533E-01  0.00000E+00  0.62579E-01  0.77133E-01  0.00000E+00  0.70948E-01  0.76724E-01  0.00000E+00  0.79360E-01  0.76310E-01  0.00000E+00  0.87816E-01  0.75894E-01  0.00000E+00  0.96314E-01
        0.75480E-01  0.00000E+00  0.10486E+00  0.75069E-01  0.00000E+00  0.11344E+00  0.74663E-01  0.00000E+00  0.12208E+00  0.74264E-01  0.00000E+00  0.13075E+00  0.73872E-01  0.00000E+00  0.13947E+00  0.73490E-01  0.00000E+00  0.14823E+00
        0.73120E-01  0.00000E+00  0.15704E+00  0.72762E-01  0.00000E+00  0.16589E+00  0.72420E-01  0.00000E+00  0.17478E+00  0.72095E-01  0.00000E+00  0.18371E+00  0.71791E-01  0.00000E+00  0.19267E+00  0.71509E-01  0.00000E+00  0.20168E+00
        0.71253E-01  0.00000E+00  0.21070E+00  0.71025E-01  0.00000E+00  0.21977E+00  0.70831E-01  0.00000E+00  0.22887E+00  0.70669E-01  0.00000E+00  0.23794E+00  0.70559E-01  0.00000E+00  0.24722E+00  0.70478E-01  0.00000E+00  0.25587E+00
        0.90765E-01  0.00000E+00  0.43524E-02  0.91101E-01  0.00000E+00  0.13088E-01  0.91089E-01  0.00000E+00  0.21226E-01  0.90951E-01  0.00000E+00  0.29419E-01  0.90710E-01  0.00000E+00  0.37649E-01  0.90370E-01  0.00000E+00  0.45890E-01
        0.89970E-01  0.00000E+00  0.54167E-01  0.89533E-01  0.00000E+00  0.62488E-01  0.89075E-01  0.00000E+00  0.70847E-01  0.88605E-01  0.00000E+00  0.79250E-01  0.88130E-01  0.00000E+00  0.87698E-01  0.87654E-01  0.00000E+00  0.96189E-01
        0.87179E-01  0.00000E+00  0.10472E+00  0.86708E-01  0.00000E+00  0.11330E+00  0.86243E-01  0.00000E+00  0.12193E+00  0.85785E-01  0.00000E+00  0.13060E+00  0.85336E-01  0.00000E+00  0.13931E+00  0.84898E-01  0.00000E+00  0.14806E+00
        0.84472E-01  0.00000E+00  0.15686E+00  0.84062E-01  0.00000E+00  0.16570E+00  0.83668E-01  0.00000E+00  0.17458E+00  0.83295E-01  0.00000E+00  0.18350E+00  0.82945E-01  0.00000E+00  0.19246E+00  0.82620E-01  0.00000E+00  0.20145E+00
        0.82326E-01  0.00000E+00  0.21047E+00  0.82064E-01  0.00000E+00  0.21953E+00  0.81841E-01  0.00000E+00  0.22861E+00  0.81658E-01  0.00000E+00  0.23767E+00  0.81531E-01  0.00000E+00  0.24694E+00  0.81435E-01  0.00000E+00  0.25557E+00
[...]
<PointData>
      <DataArray type="Float32" Name="Velocity vectors"  NumberOfComponents="3"  format="ascii" >
          0.24236E-01  0.00000E+00 -0.11627E-01  0.76842E-02  0.00000E+00 -0.20369E-01  0.52792E-02  0.00000E+00 -0.27281E-01  0.71393E-02  0.00000E+00 -0.36759E-01  0.70418E-02  0.00000E+00 -0.46683E-01  0.67184E-02  0.00000E+00 -0.55997E-01
          0.64930E-02  0.00000E+00 -0.65138E-01  0.62573E-02  0.00000E+00 -0.73969E-01  0.60205E-02  0.00000E+00 -0.82528E-01  0.57851E-02  0.00000E+00 -0.90827E-01  0.55487E-02  0.00000E+00 -0.98877E-01  0.53127E-02  0.00000E+00 -0.10668E+00
          0.50810E-02  0.00000E+00 -0.11425E+00  0.48622E-02  0.00000E+00 -0.12158E+00  0.46670E-02  0.00000E+00 -0.12869E+00  0.45035E-02  0.00000E+00 -0.13564E+00  0.43593E-02  0.00000E+00 -0.14250E+00  0.42171E-02  0.00000E+00 -0.14929E+00
          0.40738E-02  0.00000E+00 -0.15600E+00  0.39316E-02  0.00000E+00 -0.16262E+00  0.37919E-02  0.00000E+00 -0.16915E+00  0.36620E-02  0.00000E+00 -0.17559E+00  0.35282E-02  0.00000E+00 -0.18196E+00  0.34256E-02  0.00000E+00 -0.18822E+00
          0.32801E-02  0.00000E+00 -0.19450E+00  0.32450E-02  0.00000E+00 -0.20056E+00  0.29928E-02  0.00000E+00 -0.20686E+00  0.31360E-02  0.00000E+00 -0.21272E+00  0.27932E-02  0.00000E+00 -0.21839E+00  0.16609E-02  0.00000E+00 -0.22677E+00
          0.46981E-01  0.00000E+00 -0.48287E-02  0.17101E-01  0.00000E+00 -0.14283E-01  0.19453E-01  0.00000E+00 -0.22288E-01  0.21691E-01  0.00000E+00 -0.33058E-01  0.20524E-01  0.00000E+00 -0.42477E-01  0.20233E-01  0.00000E+00 -0.51996E-01
          0.19332E-01  0.00000E+00 -0.61545E-01  0.18529E-01  0.00000E+00 -0.70549E-01  0.17714E-01  0.00000E+00 -0.79307E-01  0.16936E-01  0.00000E+00 -0.87708E-01  0.16186E-01  0.00000E+00 -0.95806E-01  0.15468E-01  0.00000E+00 -0.10364E+00
          0.14782E-01  0.00000E+00 -0.11122E+00  0.14135E-01  0.00000E+00 -0.11859E+00  0.13543E-01  0.00000E+00 -0.12578E+00  0.13048E-01  0.00000E+00 -0.13281E+00  0.12668E-01  0.00000E+00 -0.13972E+00  0.12286E-01  0.00000E+00 -0.14655E+00
          0.11903E-01  0.00000E+00 -0.15329E+00  0.11526E-01  0.00000E+00 -0.15995E+00  0.11158E-01  0.00000E+00 -0.16653E+00  0.10817E-01  0.00000E+00 -0.17302E+00  0.10478E-01  0.00000E+00 -0.17950E+00  0.10197E-01  0.00000E+00 -0.18579E+00
          0.98781E-02  0.00000E+00 -0.19228E+00  0.96812E-02  0.00000E+00 -0.19830E+00  0.93483E-02  0.00000E+00 -0.20485E+00  0.92215E-02  0.00000E+00 -0.21087E+00  0.88245E-02  0.00000E+00 -0.21615E+00  0.82080E-02  0.00000E+00 -0.22614E+00
          0.63469E-01  0.00000E+00 -0.29879E-02  0.33816E-01  0.00000E+00 -0.11874E-01  0.35893E-01  0.00000E+00 -0.20843E-01  0.37883E-01  0.00000E+00 -0.31303E-01  0.36570E-01  0.00000E+00 -0.40333E-01  0.35664E-01  0.00000E+00 -0.49680E-01
          0.34151E-01  0.00000E+00 -0.58734E-01  0.32661E-01  0.00000E+00 -0.67376E-01  0.31173E-01  0.00000E+00 -0.75828E-01  0.29783E-01  0.00000E+00 -0.83958E-01  0.28475E-01  0.00000E+00 -0.91866E-01  0.27254E-01  0.00000E+00 -0.99563E-01
          0.26124E-01  0.00000E+00 -0.10708E+00  0.25088E-01  0.00000E+00 -0.11444E+00  0.24166E-01  0.00000E+00 -0.12168E+00  0.23354E-01  0.00000E+00 -0.12880E+00  0.22614E-01  0.00000E+00 -0.13578E+00  0.21917E-01  0.00000E+00 -0.14263E+00
          0.21248E-01  0.00000E+00 -0.14937E+00  0.20608E-01  0.00000E+00 -0.15603E+00  0.19999E-01  0.00000E+00 -0.16264E+00  0.19424E-01  0.00000E+00 -0.16915E+00  0.18890E-01  0.00000E+00 -0.17573E+00  0.18380E-01  0.00000E+00 -0.18204E+00
          0.17924E-01  0.00000E+00 -0.18869E+00  0.17471E-01  0.00000E+00 -0.19473E+00  0.17049E-01  0.00000E+00 -0.20143E+00  0.16610E-01  0.00000E+00 -0.20761E+00  0.16133E-01  0.00000E+00 -0.21286E+00  0.15517E-01  0.00000E+00 -0.22338E+00
          0.75263E-01  0.00000E+00 -0.19728E-02  0.52536E-01  0.00000E+00 -0.98155E-02  0.52142E-01  0.00000E+00 -0.19565E-01  0.53905E-01  0.00000E+00 -0.29990E-01  0.52159E-01  0.00000E+00 -0.39007E-01  0.50713E-01  0.00000E+00 -0.48245E-01
          0.48650E-01  0.00000E+00 -0.57109E-01  0.46552E-01  0.00000E+00 -0.65604E-01  0.44527E-01  0.00000E+00 -0.73886E-01  0.42621E-01  0.00000E+00 -0.81881E-01  0.40844E-01  0.00000E+00 -0.89681E-01  0.39193E-01  0.00000E+00 -0.97288E-01
          0.37665E-01  0.00000E+00 -0.10474E+00  0.36254E-01  0.00000E+00 -0.11206E+00  0.34961E-01  0.00000E+00 -0.11924E+00  0.33789E-01  0.00000E+00 -0.12631E+00  0.32718E-01  0.00000E+00 -0.13325E+00  0.31725E-01  0.00000E+00 -0.14011E+00
          0.30791E-01  0.00000E+00 -0.14687E+00  0.29911E-01  0.00000E+00 -0.15357E+00  0.29083E-01  0.00000E+00 -0.16023E+00  0.28303E-01  0.00000E+00 -0.16680E+00  0.27582E-01  0.00000E+00 -0.17346E+00  0.26896E-01  0.00000E+00 -0.17986E+00
          0.26273E-01  0.00000E+00 -0.18664E+00  0.25661E-01  0.00000E+00 -0.19281E+00  0.25121E-01  0.00000E+00 -0.19973E+00  0.24512E-01  0.00000E+00 -0.20603E+00  0.24125E-01  0.00000E+00 -0.21175E+00  0.23478E-01  0.00000E+00 -0.22234E+00
          0.85259E-01  0.00000E+00 -0.17126E-02  0.70553E-01  0.00000E+00 -0.86902E-02  0.68989E-01  0.00000E+00 -0.18548E-01  0.69947E-01  0.00000E+00 -0.29002E-01  0.67924E-01  0.00000E+00 -0.38216E-01  0.65751E-01  0.00000E+00 -0.47524E-01
          0.63039E-01  0.00000E+00 -0.56402E-01  0.60310E-01  0.00000E+00 -0.64863E-01  0.57704E-01  0.00000E+00 -0.73077E-01  0.55271E-01  0.00000E+00 -0.80992E-01  0.53027E-01  0.00000E+00 -0.88699E-01  0.50959E-01  0.00000E+00 -0.96221E-01
          0.49056E-01  0.00000E+00 -0.10359E+00  0.47306E-01  0.00000E+00 -0.11084E+00  0.45698E-01  0.00000E+00 -0.11797E+00  0.44215E-01  0.00000E+00 -0.12501E+00  0.42840E-01  0.00000E+00 -0.13195E+00  0.41559E-01  0.00000E+00 -0.13880E+00
          0.40362E-01  0.00000E+00 -0.14558E+00  0.39243E-01  0.00000E+00 -0.15230E+00  0.38198E-01  0.00000E+00 -0.15899E+00  0.37228E-01  0.00000E+00 -0.16560E+00  0.36320E-01  0.00000E+00 -0.17232E+00  0.35486E-01  0.00000E+00 -0.17878E+00
          0.34702E-01  0.00000E+00 -0.18566E+00  0.33969E-01  0.00000E+00 -0.19189E+00  0.33297E-01  0.00000E+00 -0.19899E+00  0.32604E-01  0.00000E+00 -0.20534E+00  0.32109E-01  0.00000E+00 -0.21122E+00  0.31518E-01  0.00000E+00 -0.22199E+00
          0.94241E-01  0.00000E+00 -0.15479E-02  0.87662E-01  0.00000E+00 -0.80599E-02  0.85941E-01  0.00000E+00 -0.17846E-01  0.86046E-01  0.00000E+00 -0.28341E-01  0.83664E-01  0.00000E+00 -0.37681E-01  0.80729E-01  0.00000E+00 -0.47005E-01
          0.77345E-01  0.00000E+00 -0.55903E-01  0.73977E-01  0.00000E+00 -0.64366E-01  0.70800E-01  0.00000E+00 -0.72568E-01  0.67866E-01  0.00000E+00 -0.80469E-01  0.65179E-01  0.00000E+00 -0.88158E-01  0.62716E-01  0.00000E+00 -0.95657E-01
          0.60453E-01  0.00000E+00 -0.10300E+00  0.58364E-01  0.00000E+00 -0.11022E+00  0.56432E-01  0.00000E+00 -0.11731E+00  0.54644E-01  0.00000E+00 -0.12431E+00  0.52988E-01  0.00000E+00 -0.13122E+00  0.51452E-01  0.00000E+00 -0.13807E+00
          0.50022E-01  0.00000E+00 -0.14485E+00  0.48694E-01  0.00000E+00 -0.15160E+00  0.47458E-01  0.00000E+00 -0.15832E+00  0.46315E-01  0.00000E+00 -0.16498E+00  0.45252E-01  0.00000E+00 -0.17176E+00  0.44271E-01  0.00000E+00 -0.17827E+00
          0.43362E-01  0.00000E+00 -0.18526E+00  0.42507E-01  0.00000E+00 -0.19155E+00  0.41738E-01  0.00000E+00 -0.19880E+00  0.40985E-01  0.00000E+00 -0.20524E+00  0.40466E-01  0.00000E+00 -0.21133E+00  0.39844E-01  0.00000E+00 -0.22221E+00
          0.10284E+00  0.00000E+00 -0.15581E-02  0.10390E+00  0.00000E+00 -0.78353E-02  0.10293E+00  0.00000E+00 -0.17423E-01  0.10224E+00  0.00000E+00 -0.27963E-01  0.99466E-01  0.00000E+00 -0.37426E-01  0.95738E-01  0.00000E+00 -0.46801E-01
          0.91638E-01  0.00000E+00 -0.55751E-01  0.87608E-01  0.00000E+00 -0.64238E-01  0.83834E-01  0.00000E+00 -0.72447E-01  0.80376E-01  0.00000E+00 -0.80346E-01  0.77225E-01  0.00000E+00 -0.88020E-01  0.74352E-01  0.00000E+00 -0.95498E-01
          0.71723E-01  0.00000E+00 -0.10282E+00  0.69307E-01  0.00000E+00 -0.11000E+00  0.67078E-01  0.00000E+00 -0.11708E+00  0.65017E-01  0.00000E+00 -0.12408E+00  0.63104E-01  0.00000E+00 -0.13098E+00  0.61327E-01  0.00000E+00 -0.13784E+00
          0.59676E-01  0.00000E+00 -0.14464E+00  0.58145E-01  0.00000E+00 -0.15140E+00  0.56726E-01  0.00000E+00 -0.15815E+00  0.55420E-01  0.00000E+00 -0.16485E+00  0.54209E-01  0.00000E+00 -0.17167E+00  0.53103E-01  0.00000E+00 -0.17824E+00
          0.52077E-01  0.00000E+00 -0.18530E+00  0.51138E-01  0.00000E+00 -0.19164E+00  0.50281E-01  0.00000E+00 -0.19901E+00  0.49470E-01  0.00000E+00 -0.20549E+00  0.48875E-01  0.00000E+00 -0.21166E+00  0.48196E-01  0.00000E+00 -0.22264E+00
          0.11153E+00  0.00000E+00 -0.16713E-02  0.11951E+00  0.00000E+00 -0.79171E-02  0.11984E+00  0.00000E+00 -0.17298E-01  0.11854E+00  0.00000E+00 -0.27873E-01  0.11533E+00  0.00000E+00 -0.37416E-01  0.11080E+00  0.00000E+00 -0.46823E-01
          0.10596E+00  0.00000E+00 -0.55811E-01  0.10126E+00  0.00000E+00 -0.64314E-01  0.96885E-01  0.00000E+00 -0.72531E-01  0.92910E-01  0.00000E+00 -0.80435E-01  0.89308E-01  0.00000E+00 -0.88112E-01  0.86037E-01  0.00000E+00 -0.95593E-01
          0.83052E-01  0.00000E+00 -0.10291E+00  0.80312E-01  0.00000E+00 -0.11010E+00  0.77786E-01  0.00000E+00 -0.11718E+00  0.75451E-01  0.00000E+00 -0.12417E+00  0.73289E-01  0.00000E+00 -0.13108E+00  0.71286E-01  0.00000E+00 -0.13794E+00
          0.69431E-01  0.00000E+00 -0.14475E+00  0.67716E-01  0.00000E+00 -0.15154E+00  0.66131E-01  0.00000E+00 -0.15832E+00  0.64677E-01  0.00000E+00 -0.16506E+00  0.63333E-01  0.00000E+00 -0.17192E+00  0.62110E-01  0.00000E+00 -0.17854E+00
          0.60976E-01  0.00000E+00 -0.18567E+00  0.59943E-01  0.00000E+00 -0.19206E+00  0.58999E-01  0.00000E+00 -0.19953E+00  0.58121E-01  0.00000E+00 -0.20604E+00  0.57482E-01  0.00000E+00 -0.21232E+00  0.56705E-01  0.00000E+00 -0.22341E+00
          0.12047E+00  0.00000E+00 -0.18009E-02  0.13468E+00  0.00000E+00 -0.81341E-02  0.13660E+00  0.00000E+00 -0.17330E-01  0.13488E+00  0.00000E+00 -0.27956E-01  0.13121E+00  0.00000E+00 -0.37573E-01  0.12587E+00  0.00000E+00 -0.47025E-01
          0.12028E+00  0.00000E+00 -0.56060E-01  0.11488E+00  0.00000E+00 -0.64591E-01  0.10990E+00  0.00000E+00 -0.72828E-01  0.10539E+00  0.00000E+00 -0.80745E-01  0.10133E+00  0.00000E+00 -0.88429E-01  0.97657E-01  0.00000E+00 -0.95914E-01
          0.94314E-01  0.00000E+00 -0.10324E+00  0.91257E-01  0.00000E+00 -0.11043E+00  0.88448E-01  0.00000E+00 -0.11751E+00  0.85857E-01  0.00000E+00 -0.12452E+00  0.83461E-01  0.00000E+00 -0.13144E+00  0.81245E-01  0.00000E+00 -0.13833E+00
          0.79194E-01  0.00000E+00 -0.14516E+00  0.77302E-01  0.00000E+00 -0.15198E+00  0.75557E-01  0.00000E+00 -0.15880E+00  0.73960E-01  0.00000E+00 -0.16557E+00  0.72489E-01  0.00000E+00 -0.17248E+00  0.71156E-01  0.00000E+00 -0.17915E+00
          0.69925E-01  0.00000E+00 -0.18634E+00  0.68815E-01  0.00000E+00 -0.19277E+00  0.67798E-01  0.00000E+00 -0.20033E+00  0.66858E-01  0.00000E+00 -0.20687E+00  0.66153E-01  0.00000E+00 -0.21322E+00  0.65282E-01  0.00000E+00 -0.22440E+00
          0.12970E+00  0.00000E+00 -0.19122E-02  0.14959E+00  0.00000E+00 -0.83980E-02  0.15328E+00  0.00000E+00 -0.17429E-01  0.15133E+00  0.00000E+00 -0.28146E-01  0.14719E+00  0.00000E+00 -0.37842E-01  0.14101E+00  0.00000E+00 -0.47341E-01
          0.13465E+00  0.00000E+00 -0.56427E-01  0.12854E+00  0.00000E+00 -0.64985E-01  0.12295E+00  0.00000E+00 -0.73246E-01  0.11792E+00  0.00000E+00 -0.81188E-01  0.11340E+00  0.00000E+00 -0.88890E-01  0.10933E+00  0.00000E+00 -0.96395E-01
          0.10564E+00  0.00000E+00 -0.10374E+00  0.10228E+00  0.00000E+00 -0.11095E+00  0.99188E-01  0.00000E+00 -0.11806E+00  0.96344E-01  0.00000E+00 -0.12508E+00  0.93720E-01  0.00000E+00 -0.13203E+00  0.91297E-01  0.00000E+00 -0.13894E+00
          0.89061E-01  0.00000E+00 -0.14580E+00  0.87003E-01  0.00000E+00 -0.15266E+00  0.85109E-01  0.00000E+00 -0.15951E+00  0.83380E-01  0.00000E+00 -0.16633E+00  0.81791E-01  0.00000E+00 -0.17329E+00  0.80357E-01  0.00000E+00 -0.18001E+00
          0.79031E-01  0.00000E+00 -0.18726E+00  0.77840E-01  0.00000E+00 -0.19373E+00  0.76740E-01  0.00000E+00 -0.20139E+00  0.75727E-01  0.00000E+00 -0.20794E+00  0.74964E-01  0.00000E+00 -0.21438E+00  0.73986E-01  0.00000E+00 -0.22567E+00
          0.13915E+00  0.00000E+00 -0.19935E-02  0.16427E+00  0.00000E+00 -0.86362E-02  0.16993E+00  0.00000E+00 -0.17529E-01  0.16785E+00  0.00000E+00 -0.28370E-01  0.16323E+00  0.00000E+00 -0.38168E-01  0.15620E+00  0.00000E+00 -0.47726E-01
          0.14903E+00  0.00000E+00 -0.56874E-01  0.14221E+00  0.00000E+00 -0.65470E-01  0.13600E+00  0.00000E+00 -0.73765E-01  0.13044E+00  0.00000E+00 -0.81743E-01  0.12546E+00  0.00000E+00 -0.89479E-01  0.12100E+00  0.00000E+00 -0.97015E-01
          0.11696E+00  0.00000E+00 -0.10439E+00  0.11329E+00  0.00000E+00 -0.11162E+00  0.10993E+00  0.00000E+00 -0.11876E+00  0.10684E+00  0.00000E+00 -0.12581E+00  0.10400E+00  0.00000E+00 -0.13279E+00  0.10139E+00  0.00000E+00 -0.13974E+00
          0.98973E-01  0.00000E+00 -0.14664E+00  0.96755E-01  0.00000E+00 -0.15354E+00  0.94718E-01  0.00000E+00 -0.16044E+00  0.92861E-01  0.00000E+00 -0.16731E+00  0.91157E-01  0.00000E+00 -0.17432E+00  0.89624E-01  0.00000E+00 -0.18109E+00
          0.88207E-01  0.00000E+00 -0.18841E+00  0.86942E-01  0.00000E+00 -0.19491E+00  0.85770E-01  0.00000E+00 -0.20267E+00  0.84692E-01  0.00000E+00 -0.20925E+00  0.83868E-01  0.00000E+00 -0.21577E+00  0.82783E-01  0.00000E+00 -0.22714E+00
          0.14876E+00  0.00000E+00 -0.20469E-02  0.17879E+00  0.00000E+00 -0.88072E-02  0.18665E+00  0.00000E+00 -0.17608E-01  0.18453E+00  0.00000E+00 -0.28585E-01  0.17943E+00  0.00000E+00 -0.38520E-01  0.17150E+00  0.00000E+00 -0.48148E-01
          0.16349E+00  0.00000E+00 -0.57366E-01  0.15594E+00  0.00000E+00 -0.66002E-01  0.14911E+00  0.00000E+00 -0.74335E-01  0.14303E+00  0.00000E+00 -0.82357E-01  0.13760E+00  0.00000E+00 -0.90136E-01  0.13274E+00  0.00000E+00 -0.97721E-01
          0.12836E+00  0.00000E+00 -0.10514E+00  0.12438E+00  0.00000E+00 -0.11242E+00  0.12076E+00  0.00000E+00 -0.11959E+00  0.11744E+00  0.00000E+00 -0.12668E+00  0.11438E+00  0.00000E+00 -0.13371E+00  0.11157E+00  0.00000E+00 -0.14070E+00
          0.10899E+00  0.00000E+00 -0.14764E+00  0.10662E+00  0.00000E+00 -0.15459E+00  0.10445E+00  0.00000E+00 -0.16153E+00  0.10247E+00  0.00000E+00 -0.16847E+00  0.10066E+00  0.00000E+00 -0.17553E+00  0.99036E-01  0.00000E+00 -0.18236E+00
          0.97532E-01  0.00000E+00 -0.18975E+00  0.96192E-01  0.00000E+00 -0.19630E+00  0.94940E-01  0.00000E+00 -0.20416E+00  0.93789E-01  0.00000E+00 -0.21075E+00  0.92903E-01  0.00000E+00 -0.21736E+00  0.91704E-01  0.00000E+00 -0.22885E+00
          0.15839E+00  0.00000E+00 -0.20591E-02  0.19311E+00  0.00000E+00 -0.89744E-02  0.20347E+00  0.00000E+00 -0.17638E-01  0.20138E+00  0.00000E+00 -0.28782E-01  0.19579E+00  0.00000E+00 -0.38875E-01  0.18689E+00  0.00000E+00 -0.48576E-01
          0.17801E+00  0.00000E+00 -0.57876E-01  0.16971E+00  0.00000E+00 -0.66563E-01  0.16225E+00  0.00000E+00 -0.74941E-01  0.15565E+00  0.00000E+00 -0.83015E-01  0.14977E+00  0.00000E+00 -0.90847E-01  0.14452E+00  0.00000E+00 -0.98490E-01
          0.13980E+00  0.00000E+00 -0.10597E+00  0.13552E+00  0.00000E+00 -0.11331E+00  0.13163E+00  0.00000E+00 -0.12054E+00  0.12808E+00  0.00000E+00 -0.12768E+00  0.12482E+00  0.00000E+00 -0.13475E+00  0.12183E+00  0.00000E+00 -0.14179E+00
          0.11909E+00  0.00000E+00 -0.14879E+00  0.11657E+00  0.00000E+00 -0.15580E+00  0.11427E+00  0.00000E+00 -0.16280E+00  0.11218E+00  0.00000E+00 -0.16979E+00  0.11027E+00  0.00000E+00 -0.17691E+00  0.10855E+00  0.00000E+00 -0.18381E+00
          0.10696E+00  0.00000E+00 -0.19128E+00  0.10555E+00  0.00000E+00 -0.19787E+00  0.10422E+00  0.00000E+00 -0.20584E+00  0.10301E+00  0.00000E+00 -0.21246E+00  0.10206E+00  0.00000E+00 -0.21917E+00  0.10074E+00  0.00000E+00 -0.23077E+00
          0.16805E+00  0.00000E+00 -0.20550E-02  0.20723E+00  0.00000E+00 -0.91468E-02  0.22045E+00  0.00000E+00 -0.17634E-01  0.21845E+00  0.00000E+00 -0.28972E-01  0.21238E+00  0.00000E+00 -0.39222E-01  0.20243E+00  0.00000E+00 -0.48999E-01
          0.19263E+00  0.00000E+00 -0.58387E-01  0.18356E+00  0.00000E+00 -0.67130E-01  0.17549E+00  0.00000E+00 -0.75562E-01  0.16836E+00  0.00000E+00 -0.83697E-01  0.16205E+00  0.00000E+00 -0.91589E-01  0.15642E+00  0.00000E+00 -0.99299E-01
          0.15136E+00  0.00000E+00 -0.10685E+00  0.14678E+00  0.00000E+00 -0.11426E+00  0.14262E+00  0.00000E+00 -0.12156E+00  0.13883E+00  0.00000E+00 -0.12877E+00  0.13537E+00  0.00000E+00 -0.13591E+00  0.13220E+00  0.00000E+00 -0.14301E+00
          0.12930E+00  0.00000E+00 -0.15007E+00  0.12665E+00  0.00000E+00 -0.15714E+00  0.12423E+00  0.00000E+00 -0.16420E+00  0.12203E+00  0.00000E+00 -0.17127E+00  0.12001E+00  0.00000E+00 -0.17845E+00  0.11821E+00  0.00000E+00 -0.18542E+00
          0.11654E+00  0.00000E+00 -0.19298E+00  0.11506E+00  0.00000E+00 -0.19962E+00  0.11366E+00  0.00000E+00 -0.20772E+00  0.11237E+00  0.00000E+00 -0.21435E+00  0.11136E+00  0.00000E+00 -0.22117E+00  0.10992E+00  0.00000E+00 -0.23290E+00
          0.17776E+00  0.00000E+00 -0.20355E-02  0.22110E+00  0.00000E+00 -0.93348E-02  0.23761E+00  0.00000E+00 -0.17622E-01  0.23573E+00  0.00000E+00 -0.29152E-01  0.22918E+00  0.00000E+00 -0.39553E-01  0.21811E+00  0.00000E+00 -0.49399E-01
          0.20737E+00  0.00000E+00 -0.58875E-01  0.19751E+00  0.00000E+00 -0.67688E-01  0.18880E+00  0.00000E+00 -0.76187E-01  0.18116E+00  0.00000E+00 -0.84396E-01  0.17441E+00  0.00000E+00 -0.92359E-01  0.16840E+00  0.00000E+00 -0.10015E+00
          0.16301E+00  0.00000E+00 -0.10777E+00  0.15814E+00  0.00000E+00 -0.11527E+00  0.15372E+00  0.00000E+00 -0.12265E+00  0.14969E+00  0.00000E+00 -0.12994E+00  0.14603E+00  0.00000E+00 -0.13716E+00  0.14268E+00  0.00000E+00 -0.14434E+00
          0.13963E+00  0.00000E+00 -0.15147E+00  0.13685E+00  0.00000E+00 -0.15862E+00  0.13430E+00  0.00000E+00 -0.16574E+00  0.13200E+00  0.00000E+00 -0.17289E+00  0.12990E+00  0.00000E+00 -0.18015E+00  0.12802E+00  0.00000E+00 -0.18720E+00
          0.12627E+00  0.00000E+00 -0.19485E+00  0.12472E+00  0.00000E+00 -0.20154E+00  0.12324E+00  0.00000E+00 -0.20978E+00  0.12189E+00  0.00000E+00 -0.21643E+00  0.12082E+00  0.00000E+00 -0.22337E+00  0.11925E+00  0.00000E+00 -0.23524E+00
          0.18758E+00  0.00000E+00 -0.20139E-02  0.23466E+00  0.00000E+00 -0.95507E-02  0.25501E+00  0.00000E+00 -0.17561E-01  0.25324E+00  0.00000E+00 -0.29329E-01  0.24624E+00  0.00000E+00 -0.39885E-01  0.23396E+00  0.00000E+00 -0.49785E-01
          0.22225E+00  0.00000E+00 -0.59342E-01  0.21160E+00  0.00000E+00 -0.68235E-01  0.20226E+00  0.00000E+00 -0.76814E-01  0.19410E+00  0.00000E+00 -0.85111E-01  0.18691E+00  0.00000E+00 -0.93155E-01  0.18053E+00  0.00000E+00 -0.10103E+00
          0.17481E+00  0.00000E+00 -0.10874E+00  0.16965E+00  0.00000E+00 -0.11632E+00  0.16497E+00  0.00000E+00 -0.12379E+00  0.16071E+00  0.00000E+00 -0.13118E+00  0.15684E+00  0.00000E+00 -0.13849E+00  0.15331E+00  0.00000E+00 -0.14577E+00
          0.15010E+00  0.00000E+00 -0.15298E+00  0.14719E+00  0.00000E+00 -0.16022E+00  0.14453E+00  0.00000E+00 -0.16742E+00  0.14213E+00  0.00000E+00 -0.17466E+00  0.13994E+00  0.00000E+00 -0.18200E+00  0.13799E+00  0.00000E+00 -0.18913E+00
          0.13616E+00  0.00000E+00 -0.19688E+00  0.13455E+00  0.00000E+00 -0.20364E+00  0.13300E+00  0.00000E+00 -0.21203E+00  0.13158E+00  0.00000E+00 -0.21870E+00  0.13045E+00  0.00000E+00 -0.22578E+00  0.12875E+00  0.00000E+00 -0.23780E+00
          0.19759E+00  0.00000E+00 -0.19954E-02  0.24783E+00  0.00000E+00 -0.97792E-02  0.27273E+00  0.00000E+00 -0.17538E-01  0.27101E+00  0.00000E+00 -0.29522E-01  0.26356E+00  0.00000E+00 -0.40238E-01  0.24998E+00  0.00000E+00 -0.50181E-01