<?xml version="1.0"?>
<VTKFile type="UnstructuredGrid" version="0.1" byte_order="LittleEndian" compressor="vtkZLibDataCompressor">
<UnstructuredGrid>
  <Piece NumberOfPoints="1800"        NumberOfCells="1"      >
    <Points>
      <DataArray type="Float32" NumberOfComponents="3" format="ascii" >
        0.17850E-01  0.00000E+00  0.24838E-02  0.85502E-02  0.00000E+00  0.64428E-02  0.71343E-02  0.00000E+00  0.13931E-01  0.84580E-02  0.00000E+00  0.20167E-01  0.82717E-02  0.00000E+00  0.26472E-01  0.77689E-02  0.00000E+00  0.33183E-01
        0.77506E-02  0.00000E+00  0.39947E-01  0.81142E-02  0.00000E+00  0.46258E-01  0.82116E-02  0.00000E+00  0.52312E-01  0.81051E-02  0.00000E+00  0.58382E-01  0.79075E-02  0.00000E+00  0.64580E-01  0.77299E-02  0.00000E+00  0.70838E-01
        0.75831E-02  0.00000E+00  0.77202E-01  0.74336E-02  0.00000E+00  0.83658E-01  0.73007E-02  0.00000E+00  0.90206E-01  0.71822E-02  0.00000E+00  0.96841E-01  0.70761E-02  0.00000E+00  0.10356E+00  0.69808E-02  0.00000E+00  0.11036E+00
        0.68944E-02  0.00000E+00  0.11723E+00  0.68166E-02  0.00000E+00  0.12417E+00  0.67428E-02  0.00000E+00  0.13118E+00  0.66751E-02  0.00000E+00  0.13826E+00  0.66138E-02  0.00000E+00  0.14540E+00  0.65410E-02  0.00000E+00  0.15260E+00
        0.64983E-02  0.00000E+00  0.15988E+00  0.64487E-02  0.00000E+00  0.16722E+00  0.62903E-02  0.00000E+00  0.17452E+00  0.65706E-02  0.00000E+00  0.18217E+00  0.61296E-02  0.00000E+00  0.18967E+00  0.58806E-02  0.00000E+00  0.19590E+00
        0.31275E-01  0.00000E+00  0.38172E-02  0.20122E-01  0.00000E+00  0.10962E-01  0.29277E-01  0.00000E+00  0.13846E-01  0.27294E-01  0.00000E+00  0.21913E-01  0.18664E-01  0.00000E+00  0.24483E-01  0.27042E-01  0.00000E+00  0.31731E-01
        0.19566E-01  0.00000E+00  0.37164E-01  0.25593E-01  0.00000E+00  0.43264E-01  0.21893E-01  0.00000E+00  0.49724E-01  0.23456E-01  0.00000E+00  0.56389E-01  0.22608E-01  0.00000E+00  0.63080E-01  0.22450E-01  0.00000E+00  0.69818E-01
        0.22131E-01  0.00000E+00  0.76562E-01  0.21876E-01  0.00000E+00  0.83337E-01  0.21625E-01  0.00000E+00  0.90132E-01  0.21392E-01  0.00000E+00  0.96958E-01  0.21170E-01  0.00000E+00  0.10382E+00  0.20962E-01  0.00000E+00  0.11072E+00
        0.20763E-01  0.00000E+00  0.11766E+00  0.20574E-01  0.00000E+00  0.12465E+00  0.20393E-01  0.00000E+00  0.13169E+00  0.20215E-01  0.00000E+00  0.13877E+00  0.20051E-01  0.00000E+00  0.14593E+00  0.19885E-01  0.00000E+00  0.15308E+00
        0.19710E-01  0.00000E+00  0.16035E+00  0.19628E-01  0.00000E+00  0.16775E+00  0.19321E-01  0.00000E+00  0.17473E+00  0.19477E-01  0.00000E+00  0.18268E+00  0.19041E-01  0.00000E+00  0.19005E+00  0.19047E-01  0.00000E+00  0.19602E+00
        0.47915E-01  0.00000E+00  0.35460E-02  0.39248E-01  0.00000E+00  0.10139E-01  0.49379E-01  0.00000E+00  0.13797E-01  0.44475E-01  0.00000E+00  0.20901E-01  0.36815E-01  0.00000E+00  0.25383E-01  0.44814E-01  0.00000E+00  0.31785E-01
        0.35808E-01  0.00000E+00  0.37165E-01  0.42208E-01  0.00000E+00  0.43530E-01  0.36427E-01  0.00000E+00  0.49371E-01  0.38396E-01  0.00000E+00  0.56276E-01  0.36985E-01  0.00000E+00  0.63032E-01  0.36961E-01  0.00000E+00  0.69944E-01
        0.36587E-01  0.00000E+00  0.76865E-01  0.36304E-01  0.00000E+00  0.83781E-01  0.36014E-01  0.00000E+00  0.90714E-01  0.35735E-01  0.00000E+00  0.97662E-01  0.35451E-01  0.00000E+00  0.10463E+00  0.35175E-01  0.00000E+00  0.11162E+00
        0.34899E-01  0.00000E+00  0.11863E+00  0.34629E-01  0.00000E+00  0.12569E+00  0.34362E-01  0.00000E+00  0.13276E+00  0.34101E-01  0.00000E+00  0.13987E+00  0.33841E-01  0.00000E+00  0.14706E+00  0.33597E-01  0.00000E+00  0.15418E+00
        0.33347E-01  0.00000E+00  0.16145E+00  0.33127E-01  0.00000E+00  0.16885E+00  0.32896E-01  0.00000E+00  0.17570E+00  0.32742E-01  0.00000E+00  0.18369E+00  0.32450E-01  0.00000E+00  0.19089E+00  0.32343E-01  0.00000E+00  0.19678E+00
        0.69017E-01  0.00000E+00  0.33835E-02  0.58796E-01  0.00000E+00  0.82728E-02  0.63704E-01  0.00000E+00  0.15142E-01  0.64534E-01  0.00000E+00  0.23153E-01  0.54033E-01  0.00000E+00  0.24712E-01  0.61477E-01  0.00000E+00  0.32370E-01
        0.52986E-01  0.00000E+00  0.36883E-01  0.57545E-01  0.00000E+00  0.44175E-01  0.51943E-01  0.00000E+00  0.49902E-01  0.52828E-01  0.00000E+00  0.56954E-01  0.51580E-01  0.00000E+00  0.63671E-01  0.51379E-01  0.00000E+00  0.70563E-01
        0.50982E-01  0.00000E+00  0.77483E-01  0.50677E-01  0.00000E+00  0.84406E-01  0.50354E-01  0.00000E+00  0.91359E-01  0.50042E-01  0.00000E+00  0.98328E-01  0.49719E-01  0.00000E+00  0.10532E+00  0.49401E-01  0.00000E+00  0.11233E+00
        0.49080E-01  0.00000E+00  0.11936E+00  0.48761E-01  0.00000E+00  0.12642E+00  0.48443E-01  0.00000E+00  0.13349E+00  0.48132E-01  0.00000E+00  0.14059E+00  0.47818E-01  0.00000E+00  0.14776E+00  0.47523E-01  0.00000E+00  0.15484E+00
        0.47228E-01  0.00000E+00  0.16206E+00  0.46943E-01  0.00000E+00  0.16940E+00  0.46722E-01  0.00000E+00  0.17617E+00  0.46434E-01  0.00000E+00  0.18412E+00  0.46361E-01  0.00000E+00  0.19113E+00  0.46151E-01  0.00000E+00  0.19694E+00
        0.86394E-01  0.00000E+00  0.36506E-02  0.78227E-01  0.00000E+00  0.90354E-02  0.75544E-01  0.00000E+00  0.16716E-01  0.83039E-01  0.00000E+00  0.23067E-01  0.73796E-01  0.00000E+00  0.27324E-01  0.79945E-01  0.00000E+00  0.34710E-01
        0.69996E-01  0.00000E+00  0.37803E-01  0.72338E-01  0.00000E+00  0.45217E-01  0.67375E-01  0.00000E+00  0.50940E-01  0.67386E-01  0.00000E+00  0.57937E-01  0.66262E-01  0.00000E+00  0.64574E-01  0.65926E-01  0.00000E+00  0.71366E-01
        0.65497E-01  0.00000E+00  0.78211E-01  0.65137E-01  0.00000E+00  0.85056E-01  0.64768E-01  0.00000E+00  0.91945E-01  0.64407E-01  0.00000E+00  0.98859E-01  0.64038E-01  0.00000E+00  0.10580E+00  0.63670E-01  0.00000E+00  0.11277E+00
        0.63300E-01  0.00000E+00  0.11977E+00  0.62932E-01  0.00000E+00  0.12680E+00  0.62563E-01  0.00000E+00  0.13384E+00  0.62201E-01  0.00000E+00  0.14092E+00  0.61840E-01  0.00000E+00  0.14806E+00  0.61493E-01  0.00000E+00  0.15511E+00
        0.61150E-01  0.00000E+00  0.16231E+00  0.60836E-01  0.00000E+00  0.16961E+00  0.60537E-01  0.00000E+00  0.17632E+00  0.60278E-01  0.00000E+00  0.18425E+00  0.60059E-01  0.00000E+00  0.19120E+00  0.59939E-01  0.00000E+00  0.19697E+00
        0.10113E+00  0.00000E+00  0.41348E-02  0.94912E-01  0.00000E+00  0.10760E-01  0.90468E-01  0.00000E+00  0.17439E-01  0.10148E+00  0.00000E+00  0.22200E-01  0.92841E-01  0.00000E+00  0.27006E-01  0.96783E-01  0.00000E+00  0.34683E-01
        0.88160E-01  0.00000E+00  0.38465E-01  0.87020E-01  0.00000E+00  0.46022E-01  0.82883E-01  0.00000E+00  0.51915E-01  0.82083E-01  0.00000E+00  0.58704E-01  0.81166E-01  0.00000E+00  0.65295E-01  0.80643E-01  0.00000E+00  0.72007E-01
        0.80167E-01  0.00000E+00  0.78772E-01  0.79737E-01  0.00000E+00  0.85547E-01  0.79301E-01  0.00000E+00  0.92373E-01  0.78872E-01  0.00000E+00  0.99228E-01  0.78438E-01  0.00000E+00  0.10612E+00  0.78006E-01  0.00000E+00  0.11305E+00
        0.77575E-01  0.00000E+00  0.12000E+00  0.77149E-01  0.00000E+00  0.12700E+00  0.76726E-01  0.00000E+00  0.13401E+00  0.76315E-01  0.00000E+00  0.14105E+00  0.75909E-01  0.00000E+00  0.14816E+00  0.75521E-01  0.00000E+00  0.15518E+00
        0.75150E-01  0.00000E+00  0.16235E+00  0.74802E-01  0.00000E+00  0.16961E+00  0.74495E-01  0.00000E+00  0.17627E+00  0.74220E-01  0.00000E+00  0.18419E+00  0.74063E-01  0.00000E+00  0.19104E+00  0.73876E-01  0.00000E+00  0.19676E+00
        0.11194E+00  0.00000E+00  0.43347E-02  0.11828E+00  0.00000E+00  0.11760E-01  0.10731E+00  0.00000E+00  0.14711E-01  0.11903E+00  0.00000E+00  0.21434E-01  0.11078E+00  0.00000E+00  0.25070E-01  0.11105E+00  0.00000E+00  0.33166E-01
        0.10554E+00  0.00000E+00  0.39263E-01  0.10197E+00  0.00000E+00  0.46229E-01  0.98650E-01  0.00000E+00  0.52410E-01  0.97152E-01  0.00000E+00  0.58903E-01  0.96248E-01  0.00000E+00  0.65506E-01  0.95560E-01  0.00000E+00  0.72167E-01
        0.95019E-01  0.00000E+00  0.78888E-01  0.94500E-01  0.00000E+00  0.85641E-01  0.93985E-01  0.00000E+00  0.92439E-01  0.93478E-01  0.00000E+00  0.99271E-01  0.92969E-01  0.00000E+00  0.10614E+00  0.92466E-01  0.00000E+00  0.11304E+00
        0.91967E-01  0.00000E+00  0.11997E+00  0.91479E-01  0.00000E+00  0.12695E+00  0.90999E-01  0.00000E+00  0.13393E+00  0.90536E-01  0.00000E+00  0.14095E+00  0.90085E-01  0.00000E+00  0.14803E+00  0.89657E-01  0.00000E+00  0.15501E+00
        0.89250E-01  0.00000E+00  0.16216E+00  0.88876E-01  0.00000E+00  0.16938E+00  0.88533E-01  0.00000E+00  0.17600E+00  0.88252E-01  0.00000E+00  0.18391E+00  0.88009E-01  0.00000E+00  0.19072E+00  0.87826E-01  0.00000E+00  0.19642E+00
        0.12488E+00  0.00000E+00  0.38861E-02  0.13298E+00  0.00000E+00  0.11309E-01  0.12860E+00  0.00000E+00  0.18504E-01  0.14031E+00  0.00000E+00  0.21308E-01  0.13131E+00  0.00000E+00  0.27466E-01  0.12422E+00  0.00000E+00  0.32098E-01
        0.12166E+00  0.00000E+00  0.39268E-01  0.11726E+00  0.00000E+00  0.45647E-01  0.11455E+00  0.00000E+00  0.52290E-01  0.11255E+00  0.00000E+00  0.58671E-01  0.11140E+00  0.00000E+00  0.65241E-01  0.11055E+00  0.00000E+00  0.71903E-01
        0.10989E+00  0.00000E+00  0.78611E-01  0.10928E+00  0.00000E+00  0.85369E-01  0.10868E+00  0.00000E+00  0.92169E-01  0.10809E+00  0.00000E+00  0.99000E-01  0.10751E+00  0.00000E+00  0.10587E+00  0.10694E+00  0.00000E+00  0.11276E+00
        0.10638E+00  0.00000E+00  0.11969E+00  0.10583E+00  0.00000E+00  0.12665E+00  0.10530E+00  0.00000E+00  0.13362E+00  0.10479E+00  0.00000E+00  0.14063E+00  0.10429E+00  0.00000E+00  0.14769E+00  0.10382E+00  0.00000E+00  0.15465E+00
        0.10339E+00  0.00000E+00  0.16179E+00  0.10299E+00  0.00000E+00  0.16899E+00  0.10261E+00  0.00000E+00  0.17558E+00  0.10232E+00  0.00000E+00  0.18350E+00  0.10208E+00  0.00000E+00  0.19026E+00  0.10186E+00  0.00000E+00  0.19592E+00
[...]
<PointData>
      <DataArray type="Float32" Name="Velocity vectors"  NumberOfComponents="3"  format="ascii" >
          0.10161E+00  0.00000E+00  0.51369E-03  0.37168E-01  0.00000E+00 -0.48451E-01 -0.53135E-02  0.00000E+00 -0.53418E-01  0.71768E-02  0.00000E+00 -0.47136E-01 -0.34885E-02  0.00000E+00 -0.45784E-01 -0.33410E-02  0.00000E+00 -0.44725E-01
          0.14935E-02  0.00000E+00 -0.40699E-01  0.10847E-01  0.00000E+00 -0.41269E-01  0.15050E-01  0.00000E+00 -0.45024E-01  0.17332E-01  0.00000E+00 -0.54510E-01  0.16660E-01  0.00000E+00 -0.65746E-01  0.16403E-01  0.00000E+00 -0.76966E-01
          0.15763E-01  0.00000E+00 -0.88197E-01  0.14729E-01  0.00000E+00 -0.10005E+00  0.13574E-01  0.00000E+00 -0.11163E+00  0.12404E-01  0.00000E+00 -0.12303E+00  0.11331E-01  0.00000E+00 -0.13420E+00  0.10338E-01  0.00000E+00 -0.14504E+00
          0.94917E-02  0.00000E+00 -0.15554E+00  0.87658E-02  0.00000E+00 -0.16578E+00  0.81316E-02  0.00000E+00 -0.17573E+00  0.76660E-02  0.00000E+00 -0.18535E+00  0.71819E-02  0.00000E+00 -0.19486E+00  0.66900E-02  0.00000E+00 -0.20403E+00
          0.66974E-02  0.00000E+00 -0.21268E+00  0.58527E-02  0.00000E+00 -0.22183E+00  0.53233E-02  0.00000E+00 -0.23022E+00  0.80176E-02  0.00000E+00 -0.23670E+00  0.31877E-02  0.00000E+00 -0.24632E+00  0.47005E-02  0.00000E+00 -0.25940E+00
          0.67516E-01  0.00000E+00 -0.19320E-03  0.20825E-01  0.00000E+00  0.10743E-01  0.63061E-01  0.00000E+00 -0.25693E-01  0.14828E-01  0.00000E+00 -0.23369E-01  0.70481E-03  0.00000E+00 -0.57287E-01  0.21548E-01  0.00000E+00 -0.41116E-01
         -0.21775E-01  0.00000E+00 -0.66258E-01  0.61680E-01  0.00000E+00 -0.83794E-01 -0.16937E-01  0.00000E+00 -0.88918E-01  0.53394E-01  0.00000E+00 -0.96851E-01  0.28178E-01  0.00000E+00 -0.10503E+00  0.35183E-01  0.00000E+00 -0.10950E+00
          0.32183E-01  0.00000E+00 -0.11552E+00  0.32003E-01  0.00000E+00 -0.12213E+00  0.30744E-01  0.00000E+00 -0.12859E+00  0.29632E-01  0.00000E+00 -0.13577E+00  0.28411E-01  0.00000E+00 -0.14343E+00  0.27253E-01  0.00000E+00 -0.15138E+00
          0.26163E-01  0.00000E+00 -0.15960E+00  0.25209E-01  0.00000E+00 -0.16815E+00  0.24238E-01  0.00000E+00 -0.17696E+00  0.23277E-01  0.00000E+00 -0.18553E+00  0.22402E-01  0.00000E+00 -0.19452E+00  0.21358E-01  0.00000E+00 -0.20377E+00
          0.20472E-01  0.00000E+00 -0.21143E+00  0.20099E-01  0.00000E+00 -0.22079E+00  0.17878E-01  0.00000E+00 -0.23113E+00  0.20045E-01  0.00000E+00 -0.23457E+00  0.16316E-01  0.00000E+00 -0.24661E+00  0.18503E-01  0.00000E+00 -0.25865E+00
          0.74528E-01  0.00000E+00 -0.22217E-02  0.77047E-01  0.00000E+00 -0.17181E-02  0.11199E+00  0.00000E+00 -0.14082E-01  0.48402E-01  0.00000E+00 -0.33696E-01  0.34058E-01  0.00000E+00 -0.43560E-01  0.60793E-01  0.00000E+00 -0.60449E-01
          0.27129E-01  0.00000E+00 -0.70953E-01  0.10123E+00  0.00000E+00 -0.80910E-01  0.22351E-02  0.00000E+00 -0.10232E+00  0.73190E-01  0.00000E+00 -0.11066E+00  0.33058E-01  0.00000E+00 -0.12098E+00  0.46855E-01  0.00000E+00 -0.12358E+00
          0.42568E-01  0.00000E+00 -0.12868E+00  0.43098E-01  0.00000E+00 -0.13395E+00  0.42746E-01  0.00000E+00 -0.13905E+00  0.42609E-01  0.00000E+00 -0.14479E+00  0.42184E-01  0.00000E+00 -0.15097E+00  0.41797E-01  0.00000E+00 -0.15757E+00
          0.41224E-01  0.00000E+00 -0.16443E+00  0.40590E-01  0.00000E+00 -0.17174E+00  0.39822E-01  0.00000E+00 -0.17945E+00  0.38965E-01  0.00000E+00 -0.18686E+00  0.37994E-01  0.00000E+00 -0.19505E+00  0.37072E-01  0.00000E+00 -0.20380E+00
          0.35927E-01  0.00000E+00 -0.21061E+00  0.35081E-01  0.00000E+00 -0.22007E+00  0.34039E-01  0.00000E+00 -0.23023E+00  0.33832E-01  0.00000E+00 -0.23349E+00  0.31661E-01  0.00000E+00 -0.24696E+00  0.32317E-01  0.00000E+00 -0.25816E+00
          0.13055E+00  0.00000E+00 -0.45927E-02  0.93455E-01  0.00000E+00 -0.23223E-01  0.13253E+00  0.00000E+00 -0.36728E-01  0.88760E-01  0.00000E+00 -0.22824E-01  0.77436E-01  0.00000E+00 -0.56334E-01  0.87272E-01  0.00000E+00 -0.49039E-01
          0.53011E-01  0.00000E+00 -0.76695E-01  0.14018E+00  0.00000E+00 -0.75334E-01  0.33930E-01  0.00000E+00 -0.10854E+00  0.82127E-01  0.00000E+00 -0.10514E+00  0.46186E-01  0.00000E+00 -0.11575E+00  0.54857E-01  0.00000E+00 -0.12107E+00
          0.51500E-01  0.00000E+00 -0.12665E+00  0.52753E-01  0.00000E+00 -0.13233E+00  0.52888E-01  0.00000E+00 -0.13832E+00  0.53400E-01  0.00000E+00 -0.14436E+00  0.53625E-01  0.00000E+00 -0.15071E+00  0.53851E-01  0.00000E+00 -0.15737E+00
          0.53855E-01  0.00000E+00 -0.16410E+00  0.53773E-01  0.00000E+00 -0.17125E+00  0.53486E-01  0.00000E+00 -0.17883E+00  0.53099E-01  0.00000E+00 -0.18606E+00  0.52498E-01  0.00000E+00 -0.19416E+00  0.51917E-01  0.00000E+00 -0.20287E+00
          0.51111E-01  0.00000E+00 -0.20961E+00  0.50378E-01  0.00000E+00 -0.21925E+00  0.49985E-01  0.00000E+00 -0.22947E+00  0.48928E-01  0.00000E+00 -0.23250E+00  0.49770E-01  0.00000E+00 -0.24636E+00  0.49120E-01  0.00000E+00 -0.25815E+00
          0.16968E+00  0.00000E+00 -0.57423E-03  0.15707E+00  0.00000E+00 -0.16180E-01  0.10170E+00  0.00000E+00 -0.21995E-01  0.12545E+00  0.00000E+00 -0.23681E-01  0.10854E+00  0.00000E+00 -0.37199E-01  0.14269E+00  0.00000E+00 -0.48001E-01
          0.95285E-01  0.00000E+00 -0.79869E-01  0.16367E+00  0.00000E+00 -0.68586E-01  0.58381E-01  0.00000E+00 -0.10290E+00  0.85815E-01  0.00000E+00 -0.96317E-01  0.60462E-01  0.00000E+00 -0.10723E+00  0.65824E-01  0.00000E+00 -0.11304E+00
          0.63616E-01  0.00000E+00 -0.11920E+00  0.64718E-01  0.00000E+00 -0.12601E+00  0.65242E-01  0.00000E+00 -0.13293E+00  0.66114E-01  0.00000E+00 -0.13978E+00  0.66769E-01  0.00000E+00 -0.14701E+00  0.67412E-01  0.00000E+00 -0.15447E+00
          0.67857E-01  0.00000E+00 -0.16188E+00  0.68217E-01  0.00000E+00 -0.16966E+00  0.68352E-01  0.00000E+00 -0.17776E+00  0.68374E-01  0.00000E+00 -0.18541E+00  0.68196E-01  0.00000E+00 -0.19388E+00  0.67895E-01  0.00000E+00 -0.20289E+00
          0.67458E-01  0.00000E+00 -0.20978E+00  0.67013E-01  0.00000E+00 -0.21968E+00  0.66401E-01  0.00000E+00 -0.23003E+00  0.66103E-01  0.00000E+00 -0.23313E+00  0.65113E-01  0.00000E+00 -0.24747E+00  0.65523E-01  0.00000E+00 -0.25870E+00
          0.18972E+00  0.00000E+00 -0.39476E-02  0.17014E+00  0.00000E+00 -0.80234E-02  0.11412E+00  0.00000E+00 -0.34943E-01  0.15421E+00  0.00000E+00 -0.31550E-01  0.14161E+00  0.00000E+00 -0.48755E-01  0.19382E+00  0.00000E+00 -0.56713E-01
          0.15350E+00  0.00000E+00 -0.91864E-01  0.15978E+00  0.00000E+00 -0.73834E-01  0.82803E-01  0.00000E+00 -0.97921E-01  0.89470E-01  0.00000E+00 -0.90231E-01  0.76659E-01  0.00000E+00 -0.10029E+00  0.77262E-01  0.00000E+00 -0.10691E+00
          0.77224E-01  0.00000E+00 -0.11249E+00  0.78567E-01  0.00000E+00 -0.11983E+00  0.79579E-01  0.00000E+00 -0.12730E+00  0.80785E-01  0.00000E+00 -0.13472E+00  0.81748E-01  0.00000E+00 -0.14264E+00  0.82644E-01  0.00000E+00 -0.15078E+00
          0.83313E-01  0.00000E+00 -0.15885E+00  0.83884E-01  0.00000E+00 -0.16727E+00  0.84163E-01  0.00000E+00 -0.17594E+00  0.84375E-01  0.00000E+00 -0.18405E+00  0.84355E-01  0.00000E+00 -0.19298E+00  0.84133E-01  0.00000E+00 -0.20231E+00
          0.83955E-01  0.00000E+00 -0.20935E+00  0.83547E-01  0.00000E+00 -0.21964E+00  0.83165E-01  0.00000E+00 -0.23005E+00  0.83019E-01  0.00000E+00 -0.23298E+00  0.83078E-01  0.00000E+00 -0.24783E+00  0.83049E-01  0.00000E+00 -0.25940E+00
          0.20920E+00  0.00000E+00 -0.57324E-02  0.22020E+00  0.00000E+00 -0.13201E-01  0.17123E+00  0.00000E+00 -0.36807E-01  0.20204E+00  0.00000E+00 -0.25563E-01  0.15636E+00  0.00000E+00 -0.72889E-01  0.20780E+00  0.00000E+00 -0.62086E-01
          0.18196E+00  0.00000E+00 -0.73250E-01  0.15086E+00  0.00000E+00 -0.73021E-01  0.10296E+00  0.00000E+00 -0.86844E-01  0.94392E-01  0.00000E+00 -0.88087E-01  0.91052E-01  0.00000E+00 -0.95714E-01  0.89703E-01  0.00000E+00 -0.10264E+00
          0.91899E-01  0.00000E+00 -0.10900E+00  0.93553E-01  0.00000E+00 -0.11695E+00  0.95243E-01  0.00000E+00 -0.12480E+00  0.96908E-01  0.00000E+00 -0.13272E+00  0.98236E-01  0.00000E+00 -0.14108E+00  0.99380E-01  0.00000E+00 -0.14956E+00
          0.10023E+00  0.00000E+00 -0.15795E+00  0.10094E+00  0.00000E+00 -0.16665E+00  0.10133E+00  0.00000E+00 -0.17557E+00  0.10164E+00  0.00000E+00 -0.18387E+00  0.10173E+00  0.00000E+00 -0.19304E+00  0.10163E+00  0.00000E+00 -0.20258E+00
          0.10155E+00  0.00000E+00 -0.20974E+00  0.10130E+00  0.00000E+00 -0.22028E+00  0.10091E+00  0.00000E+00 -0.23087E+00  0.10095E+00  0.00000E+00 -0.23386E+00  0.10013E+00  0.00000E+00 -0.24895E+00  0.10041E+00  0.00000E+00 -0.26033E+00
          0.22924E+00  0.00000E+00 -0.33597E-02  0.23305E+00  0.00000E+00 -0.13206E-01  0.20791E+00  0.00000E+00 -0.23377E-01  0.26310E+00  0.00000E+00 -0.45346E-01  0.25047E+00  0.00000E+00 -0.39998E-01  0.19094E+00  0.00000E+00 -0.86805E-01
          0.20071E+00  0.00000E+00 -0.62877E-01  0.15586E+00  0.00000E+00 -0.75966E-01  0.13319E+00  0.00000E+00 -0.79283E-01  0.11036E+00  0.00000E+00 -0.90050E-01  0.10651E+00  0.00000E+00 -0.97809E-01  0.10568E+00  0.00000E+00 -0.10486E+00
          0.10836E+00  0.00000E+00 -0.11172E+00  0.11044E+00  0.00000E+00 -0.11937E+00  0.11244E+00  0.00000E+00 -0.12702E+00  0.11420E+00  0.00000E+00 -0.13484E+00  0.11560E+00  0.00000E+00 -0.14300E+00  0.11677E+00  0.00000E+00 -0.15128E+00
          0.11764E+00  0.00000E+00 -0.15954E+00  0.11839E+00  0.00000E+00 -0.16812E+00  0.11880E+00  0.00000E+00 -0.17695E+00  0.11918E+00  0.00000E+00 -0.18519E+00  0.11934E+00  0.00000E+00 -0.19435E+00  0.11924E+00  0.00000E+00 -0.20385E+00
          0.11931E+00  0.00000E+00 -0.21094E+00  0.11903E+00  0.00000E+00 -0.22158E+00  0.11862E+00  0.00000E+00 -0.23204E+00  0.11882E+00  0.00000E+00 -0.23489E+00  0.11816E+00  0.00000E+00 -0.25021E+00  0.11834E+00  0.00000E+00 -0.26155E+00
          0.24781E+00  0.00000E+00 -0.46650E-02  0.24551E+00  0.00000E+00 -0.18973E-02  0.27617E+00  0.00000E+00 -0.28139E-01  0.28636E+00  0.00000E+00 -0.23070E-01  0.25931E+00  0.00000E+00 -0.38036E-01  0.22451E+00  0.00000E+00 -0.74720E-01
          0.21722E+00  0.00000E+00 -0.55129E-01  0.15287E+00  0.00000E+00 -0.95605E-01  0.16438E+00  0.00000E+00 -0.84232E-01  0.12829E+00  0.00000E+00 -0.98209E-01  0.12312E+00  0.00000E+00 -0.10330E+00  0.12132E+00  0.00000E+00 -0.10985E+00
          0.12303E+00  0.00000E+00 -0.11645E+00  0.12545E+00  0.00000E+00 -0.12289E+00  0.12787E+00  0.00000E+00 -0.12970E+00  0.13002E+00  0.00000E+00 -0.13694E+00  0.13182E+00  0.00000E+00 -0.14455E+00  0.13334E+00  0.00000E+00 -0.15251E+00
          0.13452E+00  0.00000E+00 -0.16057E+00  0.13555E+00  0.00000E+00 -0.16906E+00  0.13618E+00  0.00000E+00 -0.17786E+00  0.13676E+00  0.00000E+00 -0.18609E+00  0.13708E+00  0.00000E+00 -0.19534E+00  0.13712E+00  0.00000E+00 -0.20489E+00
          0.13729E+00  0.00000E+00 -0.21200E+00  0.13712E+00  0.00000E+00 -0.22278E+00  0.13671E+00  0.00000E+00 -0.23327E+00  0.13697E+00  0.00000E+00 -0.23610E+00  0.13591E+00  0.00000E+00 -0.25153E+00  0.13619E+00  0.00000E+00 -0.26282E+00
          0.25581E+00  0.00000E+00 -0.42059E-02  0.28101E+00  0.00000E+00 -0.15868E-01  0.30264E+00  0.00000E+00 -0.26839E-01  0.27388E+00  0.00000E+00 -0.34590E-01  0.30977E+00  0.00000E+00 -0.32148E-01  0.27756E+00  0.00000E+00 -0.59751E-01
          0.24061E+00  0.00000E+00 -0.57455E-01  0.18624E+00  0.00000E+00 -0.97906E-01  0.17874E+00  0.00000E+00 -0.88143E-01  0.14667E+00  0.00000E+00 -0.10066E+00  0.13599E+00  0.00000E+00 -0.10661E+00  0.13625E+00  0.00000E+00 -0.11204E+00
          0.13686E+00  0.00000E+00 -0.11945E+00  0.13990E+00  0.00000E+00 -0.12615E+00  0.14305E+00  0.00000E+00 -0.13308E+00  0.14593E+00  0.00000E+00 -0.14045E+00  0.14838E+00  0.00000E+00 -0.14805E+00  0.15042E+00  0.00000E+00 -0.15597E+00
          0.15200E+00  0.00000E+00 -0.16394E+00  0.15332E+00  0.00000E+00 -0.17230E+00  0.15416E+00  0.00000E+00 -0.18094E+00  0.15488E+00  0.00000E+00 -0.18901E+00  0.15531E+00  0.00000E+00 -0.19810E+00  0.15539E+00  0.00000E+00 -0.20746E+00
          0.15562E+00  0.00000E+00 -0.21441E+00  0.15543E+00  0.00000E+00 -0.22509E+00  0.15493E+00  0.00000E+00 -0.23535E+00  0.15523E+00  0.00000E+00 -0.23807E+00  0.15401E+00  0.00000E+00 -0.25352E+00  0.15423E+00  0.00000E+00 -0.26456E+00
          0.29249E+00  0.00000E+00 -0.32319E-02  0.31678E+00  0.00000E+00 -0.18519E-01  0.31689E+00  0.00000E+00 -0.15713E-01  0.28399E+00  0.00000E+00 -0.25073E-01  0.34114E+00  0.00000E+00 -0.42441E-01  0.31814E+00  0.00000E+00 -0.58724E-01
          0.28454E+00  0.00000E+00 -0.51232E-01  0.23292E+00  0.00000E+00 -0.89268E-01  0.20633E+00  0.00000E+00 -0.88437E-01  0.16848E+00  0.00000E+00 -0.10464E+00  0.15433E+00  0.00000E+00 -0.11273E+00  0.15352E+00  0.00000E+00 -0.11855E+00
          0.15311E+00  0.00000E+00 -0.12619E+00  0.15580E+00  0.00000E+00 -0.13301E+00  0.15895E+00  0.00000E+00 -0.13973E+00  0.16194E+00  0.00000E+00 -0.14681E+00  0.16459E+00  0.00000E+00 -0.15398E+00  0.16684E+00  0.00000E+00 -0.16137E+00
          0.16863E+00  0.00000E+00 -0.16882E+00  0.17015E+00  0.00000E+00 -0.17666E+00  0.17117E+00  0.00000E+00 -0.18481E+00  0.17210E+00  0.00000E+00 -0.19244E+00  0.17270E+00  0.00000E+00 -0.20118E+00  0.17292E+00  0.00000E+00 -0.21018E+00
          0.17333E+00  0.00000E+00 -0.21684E+00  0.17325E+00  0.00000E+00 -0.22738E+00  0.17279E+00  0.00000E+00 -0.23735E+00  0.17323E+00  0.00000E+00 -0.23997E+00  0.17182E+00  0.00000E+00 -0.25534E+00  0.17213E+00  0.00000E+00 -0.26622E+00
          0.32756E+00  0.00000E+00 -0.73363E-03  0.33726E+00  0.00000E+00 -0.14027E-01  0.34554E+00  0.00000E+00 -0.20434E-01  0.32014E+00  0.00000E+00 -0.27452E-01  0.37339E+00  0.00000E+00 -0.44727E-01  0.35303E+00  0.00000E+00 -0.54022E-01
          0.31461E+00  0.00000E+00 -0.57011E-01  0.27982E+00  0.00000E+00 -0.81658E-01  0.24301E+00  0.00000E+00 -0.83503E-01  0.19653E+00  0.00000E+00 -0.10214E+00  0.17340E+00  0.00000E+00 -0.11381E+00  0.17020E+00  0.00000E+00 -0.12066E+00
          0.16804E+00  0.00000E+00 -0.12867E+00  0.17022E+00  0.00000E+00 -0.13551E+00  0.17327E+00  0.00000E+00 -0.14229E+00  0.17642E+00  0.00000E+00 -0.14940E+00  0.17939E+00  0.00000E+00 -0.15657E+00  0.18206E+00  0.00000E+00 -0.16395E+00
          0.18428E+00  0.00000E+00 -0.17140E+00  0.18624E+00  0.00000E+00 -0.17922E+00  0.18766E+00  0.00000E+00 -0.18733E+00  0.18895E+00  0.00000E+00 -0.19490E+00  0.18989E+00  0.00000E+00 -0.20360E+00  0.19038E+00  0.00000E+00 -0.21250E+00
          0.19101E+00  0.00000E+00 -0.21909E+00  0.19112E+00  0.00000E+00 -0.22960E+00  0.19069E+00  0.00000E+00 -0.23937E+00  0.19126E+00  0.00000E+00 -0.24196E+00  0.18974E+00  0.00000E+00 -0.25730E+00  0.19005E+00  0.00000E+00 -0.26795E+00
          0.34876E+00  0.00000E+00 -0.11430E-02  0.36510E+00  0.00000E+00 -0.16839E-01  0.37538E+00  0.00000E+00 -0.22353E-01  0.35021E+00  0.00000E+00 -0.28614E-01  0.40428E+00  0.00000E+00 -0.48494E-01  0.38636E+00  0.00000E+00 -0.51781E-01
          0.34550E+00  0.00000E+00 -0.58241E-01  0.31360E+00  0.00000E+00 -0.79995E-01  0.27803E+00  0.00000E+00 -0.81807E-01  0.23160E+00  0.00000E+00 -0.97862E-01  0.20104E+00  0.00000E+00 -0.11130E+00  0.19126E+00  0.00000E+00 -0.12038E+00
          0.18554E+00  0.00000E+00 -0.13016E+00  0.18650E+00  0.00000E+00 -0.13772E+00  0.18920E+00  0.00000E+00 -0.14483E+00  0.19229E+00  0.00000E+00 -0.15222E+00  0.19537E+00  0.00000E+00 -0.15955E+00  0.19820E+00  0.00000E+00 -0.16698E+00
          0.20061E+00  0.00000E+00 -0.17443E+00  0.20277E+00  0.00000E+00 -0.18219E+00  0.20438E+00  0.00000E+00 -0.19017E+00  0.20587E+00  0.00000E+00 -0.19759E+00  0.20699E+00  0.00000E+00 -0.20615E+00  0.20763E+00  0.00000E+00 -0.21485E+00
          0.20845E+00  0.00000E+00 -0.22125E+00  0.20869E+00  0.00000E+00 -0.23168E+00  0.20831E+00  0.00000E+00 -0.24115E+00  0.20909E+00  0.00000E+00 -0.24368E+00  0.20744E+00  0.00000E+00 -0.25896E+00  0.20786E+00  0.00000E+00 -0.26936E+00
          0.37840E+00  0.00000E+00 -0.14797E-02  0.39724E+00  0.00000E+00 -0.18286E-01  0.40781E+00  0.00000E+00 -0.22909E-01  0.38066E+00  0.00000E+00 -0.30299E-01  0.43517E+00  0.00000E+00 -0.50372E-01  0.41671E+00  0.00000E+00 -0.51942E-01
          0.37654E+00  0.00000E+00 -0.61186E-01  0.34772E+00  0.00000E+00 -0.79034E-01  0.30984E+00  0.00000E+00 -0.82505E-01  0.26486E+00  0.00000E+00 -0.97195E-01  0.23211E+00  0.00000E+00 -0.10988E+00  0.21672E+00  0.00000E+00 -0.11912E+00
          0.20585E+00  0.00000E+00 -0.13003E+00  0.20408E+00  0.00000E+00 -0.13855E+00  0.20549E+00  0.00000E+00 -0.14609E+00  0.20799E+00  0.00000E+00 -0.15361E+00  0.21090E+00  0.00000E+00 -0.16098E+00  0.21376E+00  0.00000E+00 -0.16839E+00
          0.21630E+00  0.00000E+00 -0.17578E+00  0.21869E+00  0.00000E+00 -0.18351E+00  0.22055E+00  0.00000E+00 -0.19145E+00  0.22233E+00  0.00000E+00 -0.19883E+00  0.22375E+00  0.00000E+00 -0.20741E+00  0.22464E+00  0.00000E+00 -0.21606E+00
          0.22573E+00  0.00000E+00 -0.22242E+00  0.22621E+00  0.00000E+00 -0.23293E+00  0.22592E+00  0.00000E+00 -0.24227E+00  0.22692E+00  0.00000E+00 -0.24479E+00  0.22522E+00  0.00000E+00 -0.26013E+00  0.22569E+00  0.00000E+00 -0.27040E+00
          0.41201E+00  0.00000E+00 -0.16408E-02  0.43296E+00  0.00000E+00 -0.19783E-01  0.44272E+00  0.00000E+00 -0.22287E-01  0.41219E+00  0.00000E+00 -0.32697E-01  0.46472E+00  0.00000E+00 -0.50734E-01  0.44521E+00  0.00000E+00 -0.52608E-01
          0.40645E+00  0.00000E+00 -0.62748E-01  0.37961E+00  0.00000E+00 -0.78102E-01  0.34078E+00  0.00000E+00 -0.82651E-01  0.29654E+00  0.00000E+00 -0.96715E-01  0.26228E+00  0.00000E+00 -0.10892E+00  0.24330E+00  0.00000E+00 -0.11788E+00
          0.22838E+00  0.00000E+00 -0.12903E+00  0.22352E+00  0.00000E+00 -0.13800E+00  0.22307E+00  0.00000E+00 -0.14610E+00  0.22463E+00  0.00000E+00 -0.15394E+00  0.22721E+00  0.00000E+00 -0.16155E+00  0.23003E+00  0.00000E+00 -0.16911E+00
          0.23269E+00  0.00000E+00 -0.17661E+00  0.23527E+00  0.00000E+00 -0.18444E+00  0.23733E+00  0.00000E+00 -0.19243E+00  0.23933E+00  0.00000E+00 -0.19983E+00  0.24095E+00  0.00000E+00 -0.20846E+00  0.24201E+00  0.00000E+00 -0.21706E+00
          0.24329E+00  0.00000E+00 -0.22338E+00  0.24390E+00  0.00000E+00 -0.23396E+00  0.24363E+00  0.00000E+00 -0.24309E+00  0.24486E+00  0.00000E+00 -0.24561E+00  0.24300E+00  0.00000E+00 -0.26101E+00  0.24356E+00  0.00000E+00 -0.27104E+00
          0.44869E+00  0.00000E+00 -0.17857E-02  0.47163E+00  0.00000E+00 -0.21144E-01  0.48080E+00  0.00000E+00 -0.19731E-01  0.44575E+00  0.00000E+00 -0.37397E-01  0.48942E+00  0.00000E+00 -0.48618E-01  0.47037E+00  0.00000E+00 -0.53488E-01
          0.43472E+00  0.00000E+00 -0.62320E-01  0.40923E+00  0.00000E+00 -0.76946E-01  0.37070E+00  0.00000E+00 -0.82141E-01  0.32725E+00  0.00000E+00 -0.95868E-01  0.29153E+00  0.00000E+00 -0.10799E+00  0.26986E+00  0.00000E+00 -0.11663E+00
          0.25190E+00  0.00000E+00 -0.12784E+00  0.24438E+00  0.00000E+00 -0.13685E+00  0.24190E+00  0.00000E+00 -0.14530E+00  0.24217E+00  0.00000E+00 -0.15342E+00  0.24410E+00  0.00000E+00 -0.16124E+00  0.24663E+00  0.00000E+00 -0.16893E+00
          0.24921E+00  0.00000E+00 -0.17651E+00  0.25186E+00  0.00000E+00 -0.18441E+00  0.25404E+00  0.00000E+00 -0.19242E+00  0.25622E+00  0.00000E+00 -0.19982E+00  0.25805E+00  0.00000E+00 -0.20854E+00  0.25927E+00  0.00000E+00 -0.21710E+00
          0.26078E+00  0.00000E+00 -0.22340E+00  0.26158E+00  0.00000E+00 -0.23416E+00  0.26135E+00  0.00000E+00 -0.24313E+00  0.26284E+00  0.00000E+00 -0.24565E+00  0.26089E+00  0.00000E+00 -0.26121E+00  0.26154E+00  0.00000E+00 -0.27115E+00
          0.48789E+00  0.00000E+00 -0.17408E-02  0.51014E+00  0.00000E+00 -0.21932E-01  0.52103E+00  0.00000E+00 -0.14045E-01  0.48242E+00  0.00000E+00 -0.43059E-01  0.50499E+00  0.00000E+00 -0.42543E-01  0.49027E+00  0.00000E+00 -0.53892E-01