<?xml version="1.0"?>
<VTKFile type="UnstructuredGrid" version="0.1" byte_order="LittleEndian" compressor="vtkZLibDataCompressor">
<UnstructuredGrid>
  <Piece NumberOfPoints="1800"        NumberOfCells="1"      >
    <Points>
      <DataArray type="Float32" NumberOfComponents="3" format="ascii" >
        0.11771E-01  0.00000E+00  0.24810E-02  0.72478E-02  0.00000E+00  0.91637E-02  0.69462E-02  0.00000E+00  0.16597E-01  0.77655E-02  0.00000E+00  0.22774E-01  0.79438E-02  0.00000E+00  0.28819E-01  0.75968E-02  0.00000E+00  0.35356E-01
        0.72778E-02  0.00000E+00  0.42000E-01  0.71729E-02  0.00000E+00  0.48698E-01  0.70603E-02  0.00000E+00  0.55525E-01  0.69310E-02  0.00000E+00  0.62462E-01  0.68397E-02  0.00000E+00  0.69498E-01  0.67571E-02  0.00000E+00  0.76610E-01
        0.66854E-02  0.00000E+00  0.83797E-01  0.66202E-02  0.00000E+00  0.91051E-01  0.65593E-02  0.00000E+00  0.98368E-01  0.65017E-02  0.00000E+00  0.10575E+00  0.64464E-02  0.00000E+00  0.11319E+00  0.63931E-02  0.00000E+00  0.12068E+00
        0.63413E-02  0.00000E+00  0.12824E+00  0.62915E-02  0.00000E+00  0.13585E+00  0.62433E-02  0.00000E+00  0.14352E+00  0.61958E-02  0.00000E+00  0.15124E+00  0.61531E-02  0.00000E+00  0.15902E+00  0.61077E-02  0.00000E+00  0.16684E+00
        0.60657E-02  0.00000E+00  0.17472E+00  0.60478E-02  0.00000E+00  0.18267E+00  0.59414E-02  0.00000E+00  0.19058E+00  0.60650E-02  0.00000E+00  0.19870E+00  0.58769E-02  0.00000E+00  0.20685E+00  0.55768E-02  0.00000E+00  0.21399E+00
        0.27796E-01  0.00000E+00  0.36321E-02  0.19258E-01  0.00000E+00  0.10288E-01  0.24754E-01  0.00000E+00  0.16209E-01  0.24740E-01  0.00000E+00  0.22869E-01  0.20333E-01  0.00000E+00  0.28423E-01  0.23513E-01  0.00000E+00  0.35358E-01
        0.20961E-01  0.00000E+00  0.41935E-01  0.21435E-01  0.00000E+00  0.48787E-01  0.20826E-01  0.00000E+00  0.55717E-01  0.20643E-01  0.00000E+00  0.62767E-01  0.20407E-01  0.00000E+00  0.69847E-01  0.20212E-01  0.00000E+00  0.77000E-01
        0.20034E-01  0.00000E+00  0.84212E-01  0.19867E-01  0.00000E+00  0.91478E-01  0.19708E-01  0.00000E+00  0.98803E-01  0.19558E-01  0.00000E+00  0.10618E+00  0.19411E-01  0.00000E+00  0.11362E+00  0.19270E-01  0.00000E+00  0.12111E+00
        0.19131E-01  0.00000E+00  0.12866E+00  0.18998E-01  0.00000E+00  0.13626E+00  0.18869E-01  0.00000E+00  0.14392E+00  0.18743E-01  0.00000E+00  0.15162E+00  0.18623E-01  0.00000E+00  0.15938E+00  0.18512E-01  0.00000E+00  0.16718E+00
        0.18386E-01  0.00000E+00  0.17501E+00  0.18323E-01  0.00000E+00  0.18300E+00  0.18146E-01  0.00000E+00  0.19075E+00  0.18178E-01  0.00000E+00  0.19895E+00  0.17954E-01  0.00000E+00  0.20710E+00  0.17837E-01  0.00000E+00  0.21396E+00
        0.43736E-01  0.00000E+00  0.36130E-02  0.34905E-01  0.00000E+00  0.10404E-01  0.41677E-01  0.00000E+00  0.16027E-01  0.39831E-01  0.00000E+00  0.23031E-01  0.35749E-01  0.00000E+00  0.28891E-01  0.38560E-01  0.00000E+00  0.35943E-01
        0.35327E-01  0.00000E+00  0.42489E-01  0.35848E-01  0.00000E+00  0.49412E-01  0.34881E-01  0.00000E+00  0.56383E-01  0.34632E-01  0.00000E+00  0.63474E-01  0.34251E-01  0.00000E+00  0.70613E-01  0.33951E-01  0.00000E+00  0.77815E-01
        0.33668E-01  0.00000E+00  0.85071E-01  0.33398E-01  0.00000E+00  0.92374E-01  0.33139E-01  0.00000E+00  0.99729E-01  0.32891E-01  0.00000E+00  0.10713E+00  0.32649E-01  0.00000E+00  0.11459E+00  0.32416E-01  0.00000E+00  0.12209E+00
        0.32190E-01  0.00000E+00  0.12964E+00  0.31971E-01  0.00000E+00  0.13724E+00  0.31760E-01  0.00000E+00  0.14488E+00  0.31558E-01  0.00000E+00  0.15256E+00  0.31362E-01  0.00000E+00  0.16032E+00  0.31178E-01  0.00000E+00  0.16809E+00
        0.30998E-01  0.00000E+00  0.17588E+00  0.30835E-01  0.00000E+00  0.18387E+00  0.30671E-01  0.00000E+00  0.19152E+00  0.30540E-01  0.00000E+00  0.19973E+00  0.30365E-01  0.00000E+00  0.20780E+00  0.30241E-01  0.00000E+00  0.21455E+00
        0.60380E-01  0.00000E+00  0.36842E-02  0.51978E-01  0.00000E+00  0.10004E-01  0.54981E-01  0.00000E+00  0.17270E-01  0.57186E-01  0.00000E+00  0.24431E-01  0.50470E-01  0.00000E+00  0.29389E-01  0.53540E-01  0.00000E+00  0.36426E-01
        0.50085E-01  0.00000E+00  0.42851E-01  0.50038E-01  0.00000E+00  0.49869E-01  0.49047E-01  0.00000E+00  0.56868E-01  0.48587E-01  0.00000E+00  0.63987E-01  0.48116E-01  0.00000E+00  0.71168E-01  0.47721E-01  0.00000E+00  0.78399E-01
        0.47351E-01  0.00000E+00  0.85681E-01  0.47000E-01  0.00000E+00  0.93006E-01  0.46662E-01  0.00000E+00  0.10038E+00  0.46337E-01  0.00000E+00  0.10779E+00  0.46019E-01  0.00000E+00  0.11525E+00  0.45712E-01  0.00000E+00  0.12275E+00
        0.45413E-01  0.00000E+00  0.13029E+00  0.45124E-01  0.00000E+00  0.13788E+00  0.44843E-01  0.00000E+00  0.14551E+00  0.44575E-01  0.00000E+00  0.15316E+00  0.44315E-01  0.00000E+00  0.16089E+00  0.44070E-01  0.00000E+00  0.16863E+00
        0.43838E-01  0.00000E+00  0.17637E+00  0.43614E-01  0.00000E+00  0.18431E+00  0.43429E-01  0.00000E+00  0.19190E+00  0.43220E-01  0.00000E+00  0.20005E+00  0.43117E-01  0.00000E+00  0.20799E+00  0.42955E-01  0.00000E+00  0.21469E+00
        0.75356E-01  0.00000E+00  0.38826E-02  0.68126E-01  0.00000E+00  0.10334E-01  0.68381E-01  0.00000E+00  0.17828E-01  0.73192E-01  0.00000E+00  0.24423E-01  0.66818E-01  0.00000E+00  0.30208E-01  0.68395E-01  0.00000E+00  0.37363E-01
        0.64842E-01  0.00000E+00  0.43499E-01  0.64273E-01  0.00000E+00  0.50503E-01  0.63200E-01  0.00000E+00  0.57433E-01  0.62573E-01  0.00000E+00  0.64476E-01  0.62000E-01  0.00000E+00  0.71619E-01  0.61505E-01  0.00000E+00  0.78810E-01
        0.61045E-01  0.00000E+00  0.86063E-01  0.60608E-01  0.00000E+00  0.93370E-01  0.60187E-01  0.00000E+00  0.10073E+00  0.59780E-01  0.00000E+00  0.10813E+00  0.59383E-01  0.00000E+00  0.11558E+00  0.58998E-01  0.00000E+00  0.12308E+00
        0.58624E-01  0.00000E+00  0.13061E+00  0.58263E-01  0.00000E+00  0.13819E+00  0.57913E-01  0.00000E+00  0.14581E+00  0.57579E-01  0.00000E+00  0.15346E+00  0.57257E-01  0.00000E+00  0.16117E+00  0.56954E-01  0.00000E+00  0.16888E+00
        0.56664E-01  0.00000E+00  0.17661E+00  0.56401E-01  0.00000E+00  0.18452E+00  0.56157E-01  0.00000E+00  0.19206E+00  0.55939E-01  0.00000E+00  0.20020E+00  0.55778E-01  0.00000E+00  0.20810E+00  0.55651E-01  0.00000E+00  0.21475E+00
        0.88215E-01  0.00000E+00  0.43866E-02  0.84361E-01  0.00000E+00  0.11516E-01  0.82416E-01  0.00000E+00  0.18675E-01  0.89273E-01  0.00000E+00  0.24585E-01  0.82989E-01  0.00000E+00  0.30694E-01  0.83096E-01  0.00000E+00  0.37718E-01
        0.79848E-01  0.00000E+00  0.43962E-01  0.78714E-01  0.00000E+00  0.50933E-01  0.77512E-01  0.00000E+00  0.57801E-01  0.76676E-01  0.00000E+00  0.64788E-01  0.75964E-01  0.00000E+00  0.71902E-01  0.75344E-01  0.00000E+00  0.79063E-01
        0.74773E-01  0.00000E+00  0.86294E-01  0.74236E-01  0.00000E+00  0.93585E-01  0.73722E-01  0.00000E+00  0.10093E+00  0.73229E-01  0.00000E+00  0.10832E+00  0.72752E-01  0.00000E+00  0.11576E+00  0.72293E-01  0.00000E+00  0.12325E+00
        0.71849E-01  0.00000E+00  0.13077E+00  0.71422E-01  0.00000E+00  0.13834E+00  0.71012E-01  0.00000E+00  0.14595E+00  0.70622E-01  0.00000E+00  0.15358E+00  0.70248E-01  0.00000E+00  0.16127E+00  0.69899E-01  0.00000E+00  0.16896E+00
        0.69569E-01  0.00000E+00  0.17666E+00  0.69268E-01  0.00000E+00  0.18454E+00  0.69003E-01  0.00000E+00  0.19204E+00  0.68763E-01  0.00000E+00  0.20016E+00  0.68614E-01  0.00000E+00  0.20799E+00  0.68445E-01  0.00000E+00  0.21459E+00
        0.98615E-01  0.00000E+00  0.44950E-02  0.10276E+00  0.00000E+00  0.12382E-01  0.97180E-01  0.00000E+00  0.18237E-01  0.10458E+00  0.00000E+00  0.24192E-01  0.99292E-01  0.00000E+00  0.30607E-01  0.97601E-01  0.00000E+00  0.37541E-01
        0.94903E-01  0.00000E+00  0.44085E-01  0.93229E-01  0.00000E+00  0.51000E-01  0.91872E-01  0.00000E+00  0.57895E-01  0.90840E-01  0.00000E+00  0.64890E-01  0.89982E-01  0.00000E+00  0.71992E-01  0.89234E-01  0.00000E+00  0.79143E-01
        0.88552E-01  0.00000E+00  0.86361E-01  0.87915E-01  0.00000E+00  0.93637E-01  0.87308E-01  0.00000E+00  0.10096E+00  0.86729E-01  0.00000E+00  0.10834E+00  0.86171E-01  0.00000E+00  0.11576E+00  0.85636E-01  0.00000E+00  0.12323E+00
        0.85122E-01  0.00000E+00  0.13074E+00  0.84630E-01  0.00000E+00  0.13829E+00  0.84159E-01  0.00000E+00  0.14589E+00  0.83712E-01  0.00000E+00  0.15350E+00  0.83287E-01  0.00000E+00  0.16117E+00  0.82891E-01  0.00000E+00  0.16884E+00
        0.82519E-01  0.00000E+00  0.17652E+00  0.82185E-01  0.00000E+00  0.18438E+00  0.81884E-01  0.00000E+00  0.19185E+00  0.81627E-01  0.00000E+00  0.19996E+00  0.81434E-01  0.00000E+00  0.20776E+00  0.81254E-01  0.00000E+00  0.21434E+00
        0.11039E+00  0.00000E+00  0.42954E-02  0.11705E+00  0.00000E+00  0.11793E-01  0.11450E+00  0.00000E+00  0.19138E-01  0.12041E+00  0.00000E+00  0.24704E-01  0.11510E+00  0.00000E+00  0.30825E-01  0.11205E+00  0.00000E+00  0.37585E-01
        0.10974E+00  0.00000E+00  0.44214E-01  0.10773E+00  0.00000E+00  0.51034E-01  0.10622E+00  0.00000E+00  0.57941E-01  0.10503E+00  0.00000E+00  0.64903E-01  0.10403E+00  0.00000E+00  0.71967E-01  0.10316E+00  0.00000E+00  0.79096E-01
        0.10237E+00  0.00000E+00  0.86289E-01  0.10163E+00  0.00000E+00  0.93543E-01  0.10093E+00  0.00000E+00  0.10085E+00  0.10026E+00  0.00000E+00  0.10821E+00  0.99617E-01  0.00000E+00  0.11562E+00  0.99005E-01  0.00000E+00  0.12308E+00
        0.98419E-01  0.00000E+00  0.13057E+00  0.97861E-01  0.00000E+00  0.13811E+00  0.97330E-01  0.00000E+00  0.14569E+00  0.96828E-01  0.00000E+00  0.15328E+00  0.96355E-01  0.00000E+00  0.16094E+00  0.95915E-01  0.00000E+00  0.16859E+00
        0.95505E-01  0.00000E+00  0.17625E+00  0.95140E-01  0.00000E+00  0.18410E+00  0.94809E-01  0.00000E+00  0.19153E+00  0.94534E-01  0.00000E+00  0.19964E+00  0.94332E-01  0.00000E+00  0.20741E+00  0.94119E-01  0.00000E+00  0.21395E+00
[...]
<PointData>
      <DataArray type="Float32" Name="Velocity vectors"  NumberOfComponents="3"  format="ascii" >
          0.57430E-01  0.00000E+00  0.54229E-03  0.67240E-02  0.00000E+00 -0.17745E-01  0.10863E-01  0.00000E+00 -0.20052E-01  0.17807E-01  0.00000E+00 -0.29080E-01  0.20246E-01  0.00000E+00 -0.29224E-01  0.15456E-01  0.00000E+00 -0.32022E-01
          0.13668E-01  0.00000E+00 -0.40162E-01  0.15185E-01  0.00000E+00 -0.51036E-01  0.14992E-01  0.00000E+00 -0.63690E-01  0.13068E-01  0.00000E+00 -0.75963E-01  0.11700E-01  0.00000E+00 -0.86913E-01  0.10487E-01  0.00000E+00 -0.97692E-01
          0.96184E-02  0.00000E+00 -0.10789E+00  0.89187E-02  0.00000E+00 -0.11767E+00  0.84001E-02  0.00000E+00 -0.12717E+00  0.79907E-02  0.00000E+00 -0.13645E+00  0.76638E-02  0.00000E+00 -0.14559E+00  0.73923E-02  0.00000E+00 -0.15469E+00
          0.71518E-02  0.00000E+00 -0.16377E+00  0.69437E-02  0.00000E+00 -0.17282E+00  0.67148E-02  0.00000E+00 -0.18187E+00  0.65013E-02  0.00000E+00 -0.19081E+00  0.63198E-02  0.00000E+00 -0.19970E+00  0.59840E-02  0.00000E+00 -0.20859E+00
          0.59124E-02  0.00000E+00 -0.21702E+00  0.56244E-02  0.00000E+00 -0.22578E+00  0.48172E-02  0.00000E+00 -0.23428E+00  0.65739E-02  0.00000E+00 -0.24148E+00  0.38985E-02  0.00000E+00 -0.25034E+00  0.39742E-02  0.00000E+00 -0.26257E+00
          0.30375E-01  0.00000E+00  0.52926E-02 -0.46088E-02  0.00000E+00  0.77262E-02  0.83091E-01  0.00000E+00 -0.47597E-01  0.83185E-01  0.00000E+00 -0.10271E-01 -0.53082E-01  0.00000E+00 -0.55335E-01  0.92592E-01  0.00000E+00 -0.58995E-01
         -0.19884E-03  0.00000E+00 -0.70760E-01  0.45210E-01  0.00000E+00 -0.73540E-01  0.26582E-01  0.00000E+00 -0.81684E-01  0.29709E-01  0.00000E+00 -0.86616E-01  0.27098E-01  0.00000E+00 -0.93616E-01  0.25951E-01  0.00000E+00 -0.10132E+00
          0.24756E-01  0.00000E+00 -0.10904E+00  0.23753E-01  0.00000E+00 -0.11723E+00  0.22872E-01  0.00000E+00 -0.12565E+00  0.22133E-01  0.00000E+00 -0.13411E+00  0.21641E-01  0.00000E+00 -0.14271E+00  0.21226E-01  0.00000E+00 -0.15139E+00
          0.20795E-01  0.00000E+00 -0.16016E+00  0.20367E-01  0.00000E+00 -0.16884E+00  0.19911E-01  0.00000E+00 -0.17768E+00  0.19383E-01  0.00000E+00 -0.18642E+00  0.18908E-01  0.00000E+00 -0.19489E+00  0.18283E-01  0.00000E+00 -0.20408E+00
          0.17617E-01  0.00000E+00 -0.21206E+00  0.17438E-01  0.00000E+00 -0.22045E+00  0.15776E-01  0.00000E+00 -0.23063E+00  0.17214E-01  0.00000E+00 -0.23563E+00  0.14558E-01  0.00000E+00 -0.24500E+00  0.15653E-01  0.00000E+00 -0.25857E+00
          0.44826E-01  0.00000E+00 -0.23368E-02  0.29993E-01  0.00000E+00 -0.18263E-03  0.13789E+00  0.00000E+00 -0.54886E-01  0.98202E-01  0.00000E+00 -0.33244E-01 -0.27292E-01  0.00000E+00 -0.61868E-01  0.12723E+00  0.00000E+00 -0.54704E-01
          0.24495E-02  0.00000E+00 -0.74478E-01  0.64412E-01  0.00000E+00 -0.76424E-01  0.35749E-01  0.00000E+00 -0.85988E-01  0.44696E-01  0.00000E+00 -0.89721E-01  0.41319E-01  0.00000E+00 -0.95857E-01  0.41333E-01  0.00000E+00 -0.10271E+00
          0.40578E-01  0.00000E+00 -0.10937E+00  0.39827E-01  0.00000E+00 -0.11684E+00  0.39079E-01  0.00000E+00 -0.12453E+00  0.38375E-01  0.00000E+00 -0.13244E+00  0.37633E-01  0.00000E+00 -0.14055E+00  0.36921E-01  0.00000E+00 -0.14871E+00
          0.36193E-01  0.00000E+00 -0.15703E+00  0.35468E-01  0.00000E+00 -0.16523E+00  0.34733E-01  0.00000E+00 -0.17376E+00  0.33980E-01  0.00000E+00 -0.18222E+00  0.33166E-01  0.00000E+00 -0.19034E+00  0.32383E-01  0.00000E+00 -0.19966E+00
          0.31468E-01  0.00000E+00 -0.20740E+00  0.30696E-01  0.00000E+00 -0.21588E+00  0.29696E-01  0.00000E+00 -0.22655E+00  0.29275E-01  0.00000E+00 -0.23136E+00  0.27694E-01  0.00000E+00 -0.24192E+00  0.27398E-01  0.00000E+00 -0.25514E+00
          0.10954E+00  0.00000E+00 -0.39912E-02  0.88318E-01  0.00000E+00 -0.21481E-01  0.12192E+00  0.00000E+00 -0.21777E-01  0.15010E+00  0.00000E+00  0.42707E-02 -0.43082E-02  0.00000E+00 -0.69279E-01  0.13904E+00  0.00000E+00 -0.61980E-01
          0.34188E-01  0.00000E+00 -0.86593E-01  0.71270E-01  0.00000E+00 -0.83377E-01  0.50060E-01  0.00000E+00 -0.91983E-01  0.54457E-01  0.00000E+00 -0.95846E-01  0.52886E-01  0.00000E+00 -0.10043E+00  0.53350E-01  0.00000E+00 -0.10616E+00
          0.53163E-01  0.00000E+00 -0.11182E+00  0.52892E-01  0.00000E+00 -0.11822E+00  0.52482E-01  0.00000E+00 -0.12496E+00  0.52039E-01  0.00000E+00 -0.13204E+00  0.51516E-01  0.00000E+00 -0.13944E+00  0.50980E-01  0.00000E+00 -0.14711E+00
          0.50391E-01  0.00000E+00 -0.15511E+00  0.49754E-01  0.00000E+00 -0.16308E+00  0.49057E-01  0.00000E+00 -0.17150E+00  0.48322E-01  0.00000E+00 -0.17994E+00  0.47457E-01  0.00000E+00 -0.18806E+00  0.46641E-01  0.00000E+00 -0.19750E+00
          0.45662E-01  0.00000E+00 -0.20532E+00  0.44693E-01  0.00000E+00 -0.21403E+00  0.43960E-01  0.00000E+00 -0.22494E+00  0.42734E-01  0.00000E+00 -0.22975E+00  0.42704E-01  0.00000E+00 -0.24110E+00  0.41931E-01  0.00000E+00 -0.25483E+00
          0.14676E+00  0.00000E+00 -0.69732E-02  0.12058E+00  0.00000E+00 -0.27191E-01  0.90492E-01  0.00000E+00 -0.15418E-01  0.18864E+00  0.00000E+00 -0.18723E-01  0.65224E-01  0.00000E+00 -0.53559E-01  0.17357E+00  0.00000E+00 -0.33679E-01
          0.53137E-01  0.00000E+00 -0.76086E-01  0.77618E-01  0.00000E+00 -0.73384E-01  0.61367E-01  0.00000E+00 -0.82547E-01  0.64467E-01  0.00000E+00 -0.88354E-01  0.64347E-01  0.00000E+00 -0.94335E-01  0.65431E-01  0.00000E+00 -0.10126E+00
          0.66009E-01  0.00000E+00 -0.10807E+00  0.66365E-01  0.00000E+00 -0.11527E+00  0.66462E-01  0.00000E+00 -0.12276E+00  0.66400E-01  0.00000E+00 -0.13042E+00  0.66151E-01  0.00000E+00 -0.13826E+00  0.65781E-01  0.00000E+00 -0.14624E+00
          0.65281E-01  0.00000E+00 -0.15443E+00  0.64681E-01  0.00000E+00 -0.16252E+00  0.63983E-01  0.00000E+00 -0.17100E+00  0.63211E-01  0.00000E+00 -0.17944E+00  0.62337E-01  0.00000E+00 -0.18759E+00  0.61464E-01  0.00000E+00 -0.19706E+00
          0.60447E-01  0.00000E+00 -0.20489E+00  0.59535E-01  0.00000E+00 -0.21371E+00  0.58521E-01  0.00000E+00 -0.22479E+00  0.57676E-01  0.00000E+00 -0.22967E+00  0.56820E-01  0.00000E+00 -0.24134E+00  0.56535E-01  0.00000E+00 -0.25485E+00
          0.17435E+00  0.00000E+00 -0.25818E-05  0.14026E+00  0.00000E+00 -0.16721E-01  0.94038E-01  0.00000E+00 -0.45893E-02  0.22751E+00  0.00000E+00 -0.33859E-01  0.12243E+00  0.00000E+00 -0.59412E-01  0.17751E+00  0.00000E+00 -0.39276E-01
          0.86226E-01  0.00000E+00 -0.69341E-01  0.90684E-01  0.00000E+00 -0.67103E-01  0.78884E-01  0.00000E+00 -0.78210E-01  0.78956E-01  0.00000E+00 -0.86519E-01  0.79329E-01  0.00000E+00 -0.92980E-01  0.80221E-01  0.00000E+00 -0.10061E+00
          0.80770E-01  0.00000E+00 -0.10798E+00  0.81095E-01  0.00000E+00 -0.11537E+00  0.81131E-01  0.00000E+00 -0.12300E+00  0.80995E-01  0.00000E+00 -0.13070E+00  0.80690E-01  0.00000E+00 -0.13849E+00  0.80279E-01  0.00000E+00 -0.14643E+00
          0.79760E-01  0.00000E+00 -0.15454E+00  0.79164E-01  0.00000E+00 -0.16257E+00  0.78482E-01  0.00000E+00 -0.17103E+00  0.77740E-01  0.00000E+00 -0.17944E+00  0.76907E-01  0.00000E+00 -0.18761E+00  0.76069E-01  0.00000E+00 -0.19714E+00
          0.75114E-01  0.00000E+00 -0.20493E+00  0.74228E-01  0.00000E+00 -0.21389E+00  0.73337E-01  0.00000E+00 -0.22507E+00  0.72466E-01  0.00000E+00 -0.22981E+00  0.72125E-01  0.00000E+00 -0.24176E+00  0.71520E-01  0.00000E+00 -0.25559E+00
          0.15447E+00  0.00000E+00  0.12522E-02  0.22556E+00  0.00000E+00 -0.34322E-02  0.10230E+00  0.00000E+00 -0.49299E-01  0.24290E+00  0.00000E+00 -0.53085E-01  0.17083E+00  0.00000E+00 -0.72546E-01  0.16805E+00  0.00000E+00 -0.60835E-01
          0.12111E+00  0.00000E+00 -0.71103E-01  0.10746E+00  0.00000E+00 -0.73354E-01  0.97346E-01  0.00000E+00 -0.81943E-01  0.94486E-01  0.00000E+00 -0.88885E-01  0.94243E-01  0.00000E+00 -0.94743E-01  0.94702E-01  0.00000E+00 -0.10160E+00
          0.95210E-01  0.00000E+00 -0.10836E+00  0.95607E-01  0.00000E+00 -0.11537E+00  0.95756E-01  0.00000E+00 -0.12281E+00  0.95737E-01  0.00000E+00 -0.13047E+00  0.95539E-01  0.00000E+00 -0.13832E+00  0.95211E-01  0.00000E+00 -0.14640E+00
          0.94756E-01  0.00000E+00 -0.15468E+00  0.94211E-01  0.00000E+00 -0.16288E+00  0.93568E-01  0.00000E+00 -0.17154E+00  0.92866E-01  0.00000E+00 -0.18008E+00  0.92078E-01  0.00000E+00 -0.18839E+00  0.91277E-01  0.00000E+00 -0.19807E+00
          0.90383E-01  0.00000E+00 -0.20593E+00  0.89575E-01  0.00000E+00 -0.21501E+00  0.88657E-01  0.00000E+00 -0.22632E+00  0.87955E-01  0.00000E+00 -0.23107E+00  0.87179E-01  0.00000E+00 -0.24322E+00  0.86644E-01  0.00000E+00 -0.25684E+00
          0.16318E+00  0.00000E+00 -0.57612E-02  0.22442E+00  0.00000E+00 -0.63879E-02  0.17075E+00  0.00000E+00  0.80617E-02  0.32204E+00  0.00000E+00 -0.37755E-01  0.20678E+00  0.00000E+00 -0.58181E-01  0.15842E+00  0.00000E+00 -0.67874E-01
          0.13930E+00  0.00000E+00 -0.72776E-01  0.11883E+00  0.00000E+00 -0.77735E-01  0.11033E+00  0.00000E+00 -0.83210E-01  0.10704E+00  0.00000E+00 -0.89620E-01  0.10694E+00  0.00000E+00 -0.95917E-01  0.10776E+00  0.00000E+00 -0.10255E+00
          0.10884E+00  0.00000E+00 -0.10951E+00  0.10970E+00  0.00000E+00 -0.11674E+00  0.11023E+00  0.00000E+00 -0.12425E+00  0.11047E+00  0.00000E+00 -0.13200E+00  0.11044E+00  0.00000E+00 -0.13989E+00  0.11020E+00  0.00000E+00 -0.14798E+00
          0.10978E+00  0.00000E+00 -0.15625E+00  0.10926E+00  0.00000E+00 -0.16442E+00  0.10862E+00  0.00000E+00 -0.17307E+00  0.10793E+00  0.00000E+00 -0.18157E+00  0.10718E+00  0.00000E+00 -0.18989E+00  0.10639E+00  0.00000E+00 -0.19958E+00
          0.10555E+00  0.00000E+00 -0.20738E+00  0.10480E+00  0.00000E+00 -0.21654E+00  0.10389E+00  0.00000E+00 -0.22784E+00  0.10326E+00  0.00000E+00 -0.23244E+00  0.10261E+00  0.00000E+00 -0.24471E+00  0.10196E+00  0.00000E+00 -0.25845E+00
          0.18443E+00  0.00000E+00 -0.52629E-03  0.17867E+00  0.00000E+00 -0.11083E-01  0.26944E+00  0.00000E+00 -0.46678E-01  0.29787E+00  0.00000E+00 -0.13569E-01  0.22050E+00  0.00000E+00 -0.22472E-01  0.15828E+00  0.00000E+00 -0.48212E-01
          0.15393E+00  0.00000E+00 -0.47561E-01  0.12874E+00  0.00000E+00 -0.64217E-01  0.12495E+00  0.00000E+00 -0.71800E-01  0.12193E+00  0.00000E+00 -0.80497E-01  0.12210E+00  0.00000E+00 -0.89629E-01  0.12314E+00  0.00000E+00 -0.98082E-01
          0.12425E+00  0.00000E+00 -0.10653E+00  0.12514E+00  0.00000E+00 -0.11501E+00  0.12566E+00  0.00000E+00 -0.12337E+00  0.12588E+00  0.00000E+00 -0.13178E+00  0.12582E+00  0.00000E+00 -0.14016E+00  0.12556E+00  0.00000E+00 -0.14861E+00
          0.12513E+00  0.00000E+00 -0.15716E+00  0.12461E+00  0.00000E+00 -0.16556E+00  0.12399E+00  0.00000E+00 -0.17439E+00  0.12332E+00  0.00000E+00 -0.18302E+00  0.12261E+00  0.00000E+00 -0.19148E+00  0.12187E+00  0.00000E+00 -0.20129E+00
          0.12109E+00  0.00000E+00 -0.20913E+00  0.12039E+00  0.00000E+00 -0.21841E+00  0.11949E+00  0.00000E+00 -0.22979E+00  0.11893E+00  0.00000E+00 -0.23438E+00  0.11807E+00  0.00000E+00 -0.24681E+00  0.11738E+00  0.00000E+00 -0.26042E+00
          0.21977E+00  0.00000E+00 -0.80457E-02  0.22418E+00  0.00000E+00 -0.88840E-02  0.30130E+00  0.00000E+00 -0.43307E-01  0.23540E+00  0.00000E+00 -0.42330E-01  0.27686E+00  0.00000E+00 -0.13279E-01  0.19936E+00  0.00000E+00 -0.45020E-01
          0.18830E+00  0.00000E+00 -0.48045E-01  0.15783E+00  0.00000E+00 -0.67959E-01  0.14920E+00  0.00000E+00 -0.76922E-01  0.14390E+00  0.00000E+00 -0.85957E-01  0.14182E+00  0.00000E+00 -0.95274E-01  0.14159E+00  0.00000E+00 -0.10331E+00
          0.14182E+00  0.00000E+00 -0.11127E+00  0.14206E+00  0.00000E+00 -0.11931E+00  0.14216E+00  0.00000E+00 -0.12723E+00  0.14207E+00  0.00000E+00 -0.13527E+00  0.14177E+00  0.00000E+00 -0.14335E+00  0.14134E+00  0.00000E+00 -0.15155E+00
          0.14079E+00  0.00000E+00 -0.15991E+00  0.14019E+00  0.00000E+00 -0.16815E+00  0.13951E+00  0.00000E+00 -0.17688E+00  0.13882E+00  0.00000E+00 -0.18540E+00  0.13811E+00  0.00000E+00 -0.19381E+00  0.13737E+00  0.00000E+00 -0.20358E+00
          0.13663E+00  0.00000E+00 -0.21134E+00  0.13596E+00  0.00000E+00 -0.22065E+00  0.13503E+00  0.00000E+00 -0.23199E+00  0.13453E+00  0.00000E+00 -0.23645E+00  0.13365E+00  0.00000E+00 -0.24898E+00  0.13290E+00  0.00000E+00 -0.26258E+00
          0.23404E+00  0.00000E+00 -0.66539E-02  0.27494E+00  0.00000E+00 -0.18307E-01  0.32191E+00  0.00000E+00 -0.27287E-01  0.22824E+00  0.00000E+00 -0.49166E-01  0.30536E+00  0.00000E+00 -0.28834E-01  0.22634E+00  0.00000E+00 -0.67805E-01
          0.22064E+00  0.00000E+00 -0.56253E-01  0.18234E+00  0.00000E+00 -0.71861E-01  0.17040E+00  0.00000E+00 -0.79853E-01  0.16270E+00  0.00000E+00 -0.88711E-01  0.15863E+00  0.00000E+00 -0.97528E-01  0.15759E+00  0.00000E+00 -0.10552E+00
          0.15735E+00  0.00000E+00 -0.11338E+00  0.15738E+00  0.00000E+00 -0.12133E+00  0.15741E+00  0.00000E+00 -0.12922E+00  0.15730E+00  0.00000E+00 -0.13723E+00  0.15703E+00  0.00000E+00 -0.14531E+00  0.15663E+00  0.00000E+00 -0.15353E+00
          0.15611E+00  0.00000E+00 -0.16189E+00  0.15556E+00  0.00000E+00 -0.17017E+00  0.15493E+00  0.00000E+00 -0.17894E+00  0.15430E+00  0.00000E+00 -0.18749E+00  0.15366E+00  0.00000E+00 -0.19596E+00  0.15298E+00  0.00000E+00 -0.20578E+00
          0.15231E+00  0.00000E+00 -0.21354E+00  0.15170E+00  0.00000E+00 -0.22294E+00  0.15078E+00  0.00000E+00 -0.23431E+00  0.15032E+00  0.00000E+00 -0.23872E+00  0.14933E+00  0.00000E+00 -0.25140E+00  0.14853E+00  0.00000E+00 -0.26492E+00
          0.27611E+00  0.00000E+00 -0.74742E-02  0.31049E+00  0.00000E+00 -0.20615E-01  0.34408E+00  0.00000E+00 -0.23343E-01  0.24570E+00  0.00000E+00 -0.50381E-01  0.32829E+00  0.00000E+00 -0.29515E-01  0.25076E+00  0.00000E+00 -0.72092E-01
          0.24329E+00  0.00000E+00 -0.60710E-01  0.20564E+00  0.00000E+00 -0.76455E-01  0.19288E+00  0.00000E+00 -0.83791E-01  0.18356E+00  0.00000E+00 -0.92153E-01  0.17755E+00  0.00000E+00 -0.10121E+00  0.17535E+00  0.00000E+00 -0.10939E+00
          0.17427E+00  0.00000E+00 -0.11728E+00  0.17377E+00  0.00000E+00 -0.12515E+00  0.17348E+00  0.00000E+00 -0.13293E+00  0.17316E+00  0.00000E+00 -0.14077E+00  0.17276E+00  0.00000E+00 -0.14866E+00  0.17229E+00  0.00000E+00 -0.15671E+00
          0.17174E+00  0.00000E+00 -0.16492E+00  0.17118E+00  0.00000E+00 -0.17307E+00  0.17056E+00  0.00000E+00 -0.18174E+00  0.16995E+00  0.00000E+00 -0.19018E+00  0.16935E+00  0.00000E+00 -0.19861E+00  0.16869E+00  0.00000E+00 -0.20838E+00
          0.16806E+00  0.00000E+00 -0.21606E+00  0.16749E+00  0.00000E+00 -0.22549E+00  0.16654E+00  0.00000E+00 -0.23683E+00  0.16615E+00  0.00000E+00 -0.24112E+00  0.16507E+00  0.00000E+00 -0.25391E+00  0.16424E+00  0.00000E+00 -0.26736E+00
          0.31769E+00  0.00000E+00 -0.54983E-02  0.34301E+00  0.00000E+00 -0.18921E-01  0.37072E+00  0.00000E+00 -0.20877E-01  0.26960E+00  0.00000E+00 -0.50795E-01  0.35244E+00  0.00000E+00 -0.30208E-01  0.28060E+00  0.00000E+00 -0.74329E-01
          0.26751E+00  0.00000E+00 -0.64051E-01  0.22614E+00  0.00000E+00 -0.80884E-01  0.21292E+00  0.00000E+00 -0.87678E-01  0.20243E+00  0.00000E+00 -0.95335E-01  0.19488E+00  0.00000E+00 -0.10392E+00  0.19171E+00  0.00000E+00 -0.11179E+00
          0.18989E+00  0.00000E+00 -0.11954E+00  0.18896E+00  0.00000E+00 -0.12733E+00  0.18848E+00  0.00000E+00 -0.13508E+00  0.18812E+00  0.00000E+00 -0.14288E+00  0.18776E+00  0.00000E+00 -0.15078E+00  0.18737E+00  0.00000E+00 -0.15884E+00
          0.18692E+00  0.00000E+00 -0.16706E+00  0.18648E+00  0.00000E+00 -0.17524E+00  0.18597E+00  0.00000E+00 -0.18396E+00  0.18547E+00  0.00000E+00 -0.19241E+00  0.18498E+00  0.00000E+00 -0.20090E+00  0.18441E+00  0.00000E+00 -0.21072E+00
          0.18387E+00  0.00000E+00 -0.21838E+00  0.18338E+00  0.00000E+00 -0.22792E+00  0.18243E+00  0.00000E+00 -0.23928E+00  0.18210E+00  0.00000E+00 -0.24349E+00  0.18094E+00  0.00000E+00 -0.25646E+00  0.18009E+00  0.00000E+00 -0.26986E+00
          0.35389E+00  0.00000E+00 -0.45327E-02  0.37392E+00  0.00000E+00 -0.17996E-01  0.39961E+00  0.00000E+00 -0.19588E-01  0.29742E+00  0.00000E+00 -0.51035E-01  0.37489E+00  0.00000E+00 -0.30064E-01  0.31076E+00  0.00000E+00 -0.73521E-01
          0.29130E+00  0.00000E+00 -0.63869E-01  0.24656E+00  0.00000E+00 -0.81290E-01  0.23254E+00  0.00000E+00 -0.88506E-01  0.22095E+00  0.00000E+00 -0.96614E-01  0.21243E+00  0.00000E+00 -0.10532E+00  0.20867E+00  0.00000E+00 -0.11333E+00
          0.20627E+00  0.00000E+00 -0.12127E+00  0.20497E+00  0.00000E+00 -0.12923E+00  0.20427E+00  0.00000E+00 -0.13714E+00  0.20378E+00  0.00000E+00 -0.14508E+00  0.20337E+00  0.00000E+00 -0.15306E+00  0.20299E+00  0.00000E+00 -0.16121E+00
          0.20257E+00  0.00000E+00 -0.16945E+00  0.20217E+00  0.00000E+00 -0.17767E+00  0.20172E+00  0.00000E+00 -0.18642E+00  0.20129E+00  0.00000E+00 -0.19486E+00  0.20087E+00  0.00000E+00 -0.20340E+00  0.20034E+00  0.00000E+00 -0.21323E+00
          0.19987E+00  0.00000E+00 -0.22085E+00  0.19942E+00  0.00000E+00 -0.23046E+00  0.19845E+00  0.00000E+00 -0.24182E+00  0.19820E+00  0.00000E+00 -0.24593E+00  0.19693E+00  0.00000E+00 -0.25907E+00  0.19607E+00  0.00000E+00 -0.27237E+00
          0.38656E+00  0.00000E+00 -0.40496E-02  0.40394E+00  0.00000E+00 -0.17243E-01  0.42965E+00  0.00000E+00 -0.18856E-01  0.32736E+00  0.00000E+00 -0.51304E-01  0.39582E+00  0.00000E+00 -0.29479E-01  0.33976E+00  0.00000E+00 -0.72325E-01
          0.31639E+00  0.00000E+00 -0.62741E-01  0.26854E+00  0.00000E+00 -0.80989E-01  0.25317E+00  0.00000E+00 -0.88652E-01  0.23987E+00  0.00000E+00 -0.97339E-01  0.23004E+00  0.00000E+00 -0.10618E+00  0.22557E+00  0.00000E+00 -0.11433E+00
          0.22250E+00  0.00000E+00 -0.12240E+00  0.22078E+00  0.00000E+00 -0.13043E+00  0.21984E+00  0.00000E+00 -0.13845E+00  0.21922E+00  0.00000E+00 -0.14649E+00  0.21878E+00  0.00000E+00 -0.15458E+00  0.21843E+00  0.00000E+00 -0.16283E+00
          0.21808E+00  0.00000E+00 -0.17117E+00  0.21778E+00  0.00000E+00 -0.17950E+00  0.21742E+00  0.00000E+00 -0.18835E+00  0.21709E+00  0.00000E+00 -0.19685E+00  0.21678E+00  0.00000E+00 -0.20551E+00  0.21634E+00  0.00000E+00 -0.21542E+00
          0.21595E+00  0.00000E+00 -0.22304E+00  0.21558E+00  0.00000E+00 -0.23280E+00  0.21460E+00  0.00000E+00 -0.24420E+00  0.21443E+00  0.00000E+00 -0.24821E+00  0.21306E+00  0.00000E+00 -0.26157E+00  0.21221E+00  0.00000E+00 -0.27483E+00
          0.41722E+00  0.00000E+00 -0.38290E-02  0.43306E+00  0.00000E+00 -0.15910E-01  0.45975E+00  0.00000E+00 -0.18188E-01  0.35941E+00  0.00000E+00 -0.50884E-01  0.41425E+00  0.00000E+00 -0.28178E-01  0.36652E+00  0.00000E+00 -0.69998E-01
          0.34136E+00  0.00000E+00 -0.60604E-01  0.29162E+00  0.00000E+00 -0.79344E-01  0.27436E+00  0.00000E+00 -0.87254E-01  0.25927E+00  0.00000E+00 -0.96697E-01  0.24809E+00  0.00000E+00 -0.10577E+00  0.24293E+00  0.00000E+00 -0.11428E+00
          0.23928E+00  0.00000E+00 -0.12268E+00  0.23720E+00  0.00000E+00 -0.13095E+00  0.23606E+00  0.00000E+00 -0.13925E+00  0.23533E+00  0.00000E+00 -0.14752E+00  0.23484E+00  0.00000E+00 -0.15582E+00  0.23450E+00  0.00000E+00 -0.16429E+00
          0.23417E+00  0.00000E+00 -0.17279E+00  0.23391E+00  0.00000E+00 -0.18127E+00  0.23361E+00  0.00000E+00 -0.19027E+00  0.23333E+00  0.00000E+00 -0.19885E+00  0.23308E+00  0.00000E+00 -0.20763E+00  0.23267E+00  0.00000E+00 -0.21762E+00
          0.23235E+00  0.00000E+00 -0.22525E+00  0.23200E+00  0.00000E+00 -0.23515E+00  0.23099E+00  0.00000E+00 -0.24658E+00  0.23089E+00  0.00000E+00 -0.25049E+00  0.22938E+00  0.00000E+00 -0.26409E+00  0.22855E+00  0.00000E+00 -0.27725E+00
          0.44585E+00  0.00000E+00 -0.35486E-02  0.46016E+00  0.00000E+00 -0.13315E-01  0.48819E+00  0.00000E+00 -0.17589E-01  0.39476E+00  0.00000E+00 -0.48030E-01  0.42977E+00  0.00000E+00 -0.25931E-01  0.39077E+00  0.00000E+00 -0.66834E-01