<?xml version="1.0"?>
<VTKFile type="UnstructuredGrid" version="0.1" byte_order="LittleEndian" compressor="vtkZLibDataCompressor">
<UnstructuredGrid>
  <Piece NumberOfPoints="1800"        NumberOfCells="1"      >
    <Points>
      <DataArray type="Float32" NumberOfComponents="3" format="ascii" >
        0.52778E-02  0.00000E+00  0.46490E-02  0.51596E-02  0.00000E+00  0.14490E-01  0.51868E-02  0.00000E+00  0.24016E-01  0.51615E-02  0.00000E+00  0.33663E-01  0.51651E-02  0.00000E+00  0.43284E-01  0.51611E-02  0.00000E+00  0.52913E-01
        0.51557E-02  0.00000E+00  0.62548E-01  0.51504E-02  0.00000E+00  0.72190E-01  0.51440E-02  0.00000E+00  0.81842E-01  0.51375E-02  0.00000E+00  0.91505E-01  0.51306E-02  0.00000E+00  0.10118E+00  0.51234E-02  0.00000E+00  0.11087E+00
        0.51162E-02  0.00000E+00  0.12056E+00  0.51088E-02  0.00000E+00  0.13028E+00  0.51012E-02  0.00000E+00  0.14000E+00  0.50937E-02  0.00000E+00  0.14974E+00  0.50860E-02  0.00000E+00  0.15950E+00  0.50784E-02  0.00000E+00  0.16926E+00
        0.50708E-02  0.00000E+00  0.17905E+00  0.50633E-02  0.00000E+00  0.18885E+00  0.50560E-02  0.00000E+00  0.19866E+00  0.50487E-02  0.00000E+00  0.20849E+00  0.50422E-02  0.00000E+00  0.21833E+00  0.50355E-02  0.00000E+00  0.22819E+00
        0.50310E-02  0.00000E+00  0.23806E+00  0.50250E-02  0.00000E+00  0.24794E+00  0.50258E-02  0.00000E+00  0.25784E+00  0.50187E-02  0.00000E+00  0.26773E+00  0.50308E-02  0.00000E+00  0.27768E+00  0.50328E-02  0.00000E+00  0.28749E+00
        0.15815E-01  0.00000E+00  0.48401E-02  0.15615E-01  0.00000E+00  0.14578E-01  0.15604E-01  0.00000E+00  0.24066E-01  0.15598E-01  0.00000E+00  0.33707E-01  0.15587E-01  0.00000E+00  0.43313E-01  0.15580E-01  0.00000E+00  0.52930E-01
        0.15567E-01  0.00000E+00  0.62558E-01  0.15553E-01  0.00000E+00  0.72193E-01  0.15537E-01  0.00000E+00  0.81838E-01  0.15520E-01  0.00000E+00  0.91493E-01  0.15503E-01  0.00000E+00  0.10116E+00  0.15484E-01  0.00000E+00  0.11084E+00
        0.15464E-01  0.00000E+00  0.12053E+00  0.15444E-01  0.00000E+00  0.13024E+00  0.15424E-01  0.00000E+00  0.13995E+00  0.15403E-01  0.00000E+00  0.14969E+00  0.15381E-01  0.00000E+00  0.15943E+00  0.15359E-01  0.00000E+00  0.16920E+00
        0.15337E-01  0.00000E+00  0.17897E+00  0.15314E-01  0.00000E+00  0.18877E+00  0.15292E-01  0.00000E+00  0.19857E+00  0.15269E-01  0.00000E+00  0.20840E+00  0.15246E-01  0.00000E+00  0.21823E+00  0.15224E-01  0.00000E+00  0.22809E+00
        0.15203E-01  0.00000E+00  0.23796E+00  0.15181E-01  0.00000E+00  0.24783E+00  0.15165E-01  0.00000E+00  0.25774E+00  0.15142E-01  0.00000E+00  0.26762E+00  0.15137E-01  0.00000E+00  0.27755E+00  0.15119E-01  0.00000E+00  0.28746E+00
        0.26087E-01  0.00000E+00  0.49128E-02  0.25950E-01  0.00000E+00  0.14669E-01  0.25933E-01  0.00000E+00  0.24184E-01  0.25913E-01  0.00000E+00  0.33822E-01  0.25898E-01  0.00000E+00  0.43426E-01  0.25882E-01  0.00000E+00  0.53040E-01
        0.25861E-01  0.00000E+00  0.62666E-01  0.25838E-01  0.00000E+00  0.72297E-01  0.25812E-01  0.00000E+00  0.81939E-01  0.25784E-01  0.00000E+00  0.91590E-01  0.25755E-01  0.00000E+00  0.10125E+00  0.25723E-01  0.00000E+00  0.11093E+00
        0.25691E-01  0.00000E+00  0.12061E+00  0.25657E-01  0.00000E+00  0.13031E+00  0.25623E-01  0.00000E+00  0.14003E+00  0.25588E-01  0.00000E+00  0.14975E+00  0.25551E-01  0.00000E+00  0.15950E+00  0.25515E-01  0.00000E+00  0.16925E+00
        0.25478E-01  0.00000E+00  0.17902E+00  0.25440E-01  0.00000E+00  0.18881E+00  0.25403E-01  0.00000E+00  0.19861E+00  0.25366E-01  0.00000E+00  0.20843E+00  0.25330E-01  0.00000E+00  0.21827E+00  0.25295E-01  0.00000E+00  0.22812E+00
        0.25262E-01  0.00000E+00  0.23798E+00  0.25232E-01  0.00000E+00  0.24786E+00  0.25208E-01  0.00000E+00  0.25776E+00  0.25186E-01  0.00000E+00  0.26765E+00  0.25182E-01  0.00000E+00  0.27759E+00  0.25181E-01  0.00000E+00  0.28746E+00
        0.36447E-01  0.00000E+00  0.48544E-02  0.36396E-01  0.00000E+00  0.14663E-01  0.36373E-01  0.00000E+00  0.24192E-01  0.36358E-01  0.00000E+00  0.33845E-01  0.36340E-01  0.00000E+00  0.43457E-01  0.36319E-01  0.00000E+00  0.53075E-01
        0.36292E-01  0.00000E+00  0.62703E-01  0.36260E-01  0.00000E+00  0.72333E-01  0.36225E-01  0.00000E+00  0.81973E-01  0.36187E-01  0.00000E+00  0.91621E-01  0.36147E-01  0.00000E+00  0.10128E+00  0.36104E-01  0.00000E+00  0.11095E+00
        0.36059E-01  0.00000E+00  0.12063E+00  0.36012E-01  0.00000E+00  0.13033E+00  0.35963E-01  0.00000E+00  0.14004E+00  0.35914E-01  0.00000E+00  0.14976E+00  0.35863E-01  0.00000E+00  0.15949E+00  0.35811E-01  0.00000E+00  0.16924E+00
        0.35758E-01  0.00000E+00  0.17901E+00  0.35705E-01  0.00000E+00  0.18879E+00  0.35651E-01  0.00000E+00  0.19859E+00  0.35598E-01  0.00000E+00  0.20840E+00  0.35545E-01  0.00000E+00  0.21823E+00  0.35493E-01  0.00000E+00  0.22808E+00
        0.35444E-01  0.00000E+00  0.23794E+00  0.35398E-01  0.00000E+00  0.24781E+00  0.35356E-01  0.00000E+00  0.25771E+00  0.35320E-01  0.00000E+00  0.26759E+00  0.35293E-01  0.00000E+00  0.27752E+00  0.35273E-01  0.00000E+00  0.28740E+00
        0.46787E-01  0.00000E+00  0.48648E-02  0.46768E-01  0.00000E+00  0.14659E-01  0.46757E-01  0.00000E+00  0.24193E-01  0.46745E-01  0.00000E+00  0.33846E-01  0.46726E-01  0.00000E+00  0.43459E-01  0.46701E-01  0.00000E+00  0.53078E-01
        0.46667E-01  0.00000E+00  0.62706E-01  0.46628E-01  0.00000E+00  0.72335E-01  0.46584E-01  0.00000E+00  0.81973E-01  0.46535E-01  0.00000E+00  0.91620E-01  0.46483E-01  0.00000E+00  0.10128E+00  0.46427E-01  0.00000E+00  0.11094E+00
        0.46368E-01  0.00000E+00  0.12062E+00  0.46307E-01  0.00000E+00  0.13031E+00  0.46243E-01  0.00000E+00  0.14002E+00  0.46178E-01  0.00000E+00  0.14973E+00  0.46110E-01  0.00000E+00  0.15947E+00  0.46041E-01  0.00000E+00  0.16921E+00
        0.45971E-01  0.00000E+00  0.17898E+00  0.45900E-01  0.00000E+00  0.18875E+00  0.45829E-01  0.00000E+00  0.19855E+00  0.45757E-01  0.00000E+00  0.20836E+00  0.45686E-01  0.00000E+00  0.21819E+00  0.45617E-01  0.00000E+00  0.22803E+00
        0.45551E-01  0.00000E+00  0.23789E+00  0.45490E-01  0.00000E+00  0.24776E+00  0.45436E-01  0.00000E+00  0.25766E+00  0.45391E-01  0.00000E+00  0.26754E+00  0.45362E-01  0.00000E+00  0.27748E+00  0.45350E-01  0.00000E+00  0.28734E+00
        0.57139E-01  0.00000E+00  0.48588E-02  0.57152E-01  0.00000E+00  0.14654E-01  0.57152E-01  0.00000E+00  0.24188E-01  0.57143E-01  0.00000E+00  0.33840E-01  0.57125E-01  0.00000E+00  0.43451E-01  0.57097E-01  0.00000E+00  0.53068E-01
        0.57059E-01  0.00000E+00  0.62693E-01  0.57014E-01  0.00000E+00  0.72320E-01  0.56962E-01  0.00000E+00  0.81955E-01  0.56904E-01  0.00000E+00  0.91598E-01  0.56841E-01  0.00000E+00  0.10125E+00  0.56774E-01  0.00000E+00  0.11091E+00
        0.56703E-01  0.00000E+00  0.12059E+00  0.56628E-01  0.00000E+00  0.13028E+00  0.56551E-01  0.00000E+00  0.13998E+00  0.56471E-01  0.00000E+00  0.14969E+00  0.56389E-01  0.00000E+00  0.15942E+00  0.56305E-01  0.00000E+00  0.16916E+00
        0.56219E-01  0.00000E+00  0.17892E+00  0.56133E-01  0.00000E+00  0.18869E+00  0.56045E-01  0.00000E+00  0.19849E+00  0.55958E-01  0.00000E+00  0.20829E+00  0.55872E-01  0.00000E+00  0.21812E+00  0.55787E-01  0.00000E+00  0.22795E+00
        0.55706E-01  0.00000E+00  0.23781E+00  0.55631E-01  0.00000E+00  0.24768E+00  0.55563E-01  0.00000E+00  0.25757E+00  0.55507E-01  0.00000E+00  0.26746E+00  0.55463E-01  0.00000E+00  0.27738E+00  0.55439E-01  0.00000E+00  0.28726E+00
        0.67500E-01  0.00000E+00  0.48549E-02  0.67537E-01  0.00000E+00  0.14645E-01  0.67550E-01  0.00000E+00  0.24175E-01  0.67545E-01  0.00000E+00  0.33823E-01  0.67527E-01  0.00000E+00  0.43431E-01  0.67496E-01  0.00000E+00  0.53043E-01
        0.67454E-01  0.00000E+00  0.62664E-01  0.67402E-01  0.00000E+00  0.72286E-01  0.67342E-01  0.00000E+00  0.81917E-01  0.67274E-01  0.00000E+00  0.91556E-01  0.67201E-01  0.00000E+00  0.10120E+00  0.67122E-01  0.00000E+00  0.11086E+00
        0.67038E-01  0.00000E+00  0.12053E+00  0.66950E-01  0.00000E+00  0.13022E+00  0.66858E-01  0.00000E+00  0.13991E+00  0.66763E-01  0.00000E+00  0.14962E+00  0.66665E-01  0.00000E+00  0.15934E+00  0.66564E-01  0.00000E+00  0.16908E+00
        0.66461E-01  0.00000E+00  0.17884E+00  0.66357E-01  0.00000E+00  0.18861E+00  0.66251E-01  0.00000E+00  0.19840E+00  0.66145E-01  0.00000E+00  0.20820E+00  0.66040E-01  0.00000E+00  0.21802E+00  0.65938E-01  0.00000E+00  0.22786E+00
        0.65839E-01  0.00000E+00  0.23772E+00  0.65747E-01  0.00000E+00  0.24758E+00  0.65664E-01  0.00000E+00  0.25748E+00  0.65595E-01  0.00000E+00  0.26736E+00  0.65546E-01  0.00000E+00  0.27729E+00  0.65523E-01  0.00000E+00  0.28715E+00
        0.77870E-01  0.00000E+00  0.48509E-02  0.77926E-01  0.00000E+00  0.14635E-01  0.77951E-01  0.00000E+00  0.24160E-01  0.77950E-01  0.00000E+00  0.33802E-01  0.77932E-01  0.00000E+00  0.43404E-01  0.77899E-01  0.00000E+00  0.53011E-01
        0.77852E-01  0.00000E+00  0.62625E-01  0.77794E-01  0.00000E+00  0.72242E-01  0.77725E-01  0.00000E+00  0.81867E-01  0.77648E-01  0.00000E+00  0.91500E-01  0.77564E-01  0.00000E+00  0.10114E+00  0.77473E-01  0.00000E+00  0.11080E+00
        0.77377E-01  0.00000E+00  0.12046E+00  0.77275E-01  0.00000E+00  0.13014E+00  0.77169E-01  0.00000E+00  0.13983E+00  0.77058E-01  0.00000E+00  0.14954E+00  0.76945E-01  0.00000E+00  0.15926E+00  0.76828E-01  0.00000E+00  0.16899E+00
        0.76708E-01  0.00000E+00  0.17874E+00  0.76587E-01  0.00000E+00  0.18851E+00  0.76465E-01  0.00000E+00  0.19829E+00  0.76342E-01  0.00000E+00  0.20809E+00  0.76220E-01  0.00000E+00  0.21791E+00  0.76101E-01  0.00000E+00  0.22775E+00
        0.75987E-01  0.00000E+00  0.23760E+00  0.75880E-01  0.00000E+00  0.24746E+00  0.75784E-01  0.00000E+00  0.25736E+00  0.75704E-01  0.00000E+00  0.26724E+00  0.75644E-01  0.00000E+00  0.27716E+00  0.75612E-01  0.00000E+00  0.28703E+00
[...]
<PointData>
      <DataArray type="Float32" Name="Velocity vectors"  NumberOfComponents="3"  format="ascii" >
          0.51905E-02  0.00000E+00 -0.41852E-02  0.31170E-02  0.00000E+00 -0.92023E-02  0.25109E-02  0.00000E+00 -0.14553E-01  0.27745E-02  0.00000E+00 -0.19936E-01  0.26706E-02  0.00000E+00 -0.25157E-01  0.27016E-02  0.00000E+00 -0.30470E-01
          0.26441E-02  0.00000E+00 -0.35697E-01  0.25941E-02  0.00000E+00 -0.40837E-01  0.25270E-02  0.00000E+00 -0.45859E-01  0.24516E-02  0.00000E+00 -0.50712E-01  0.23743E-02  0.00000E+00 -0.55395E-01  0.22880E-02  0.00000E+00 -0.59866E-01
          0.22029E-02  0.00000E+00 -0.64136E-01  0.21112E-02  0.00000E+00 -0.68177E-01  0.20199E-02  0.00000E+00 -0.71999E-01  0.19246E-02  0.00000E+00 -0.75592E-01  0.18284E-02  0.00000E+00 -0.78961E-01  0.17299E-02  0.00000E+00 -0.82104E-01
          0.16290E-02  0.00000E+00 -0.85029E-01  0.15276E-02  0.00000E+00 -0.87738E-01  0.14245E-02  0.00000E+00 -0.90245E-01  0.13203E-02  0.00000E+00 -0.92556E-01  0.12193E-02  0.00000E+00 -0.94686E-01  0.11097E-02  0.00000E+00 -0.96663E-01
          0.10233E-02  0.00000E+00 -0.98474E-01  0.90379E-03  0.00000E+00 -0.10022E+00  0.85065E-03  0.00000E+00 -0.10180E+00  0.71073E-03  0.00000E+00 -0.10349E+00  0.72026E-03  0.00000E+00 -0.10471E+00  0.22496E-03  0.00000E+00 -0.10719E+00
          0.10586E-01  0.00000E+00 -0.18169E-02  0.86164E-02  0.00000E+00 -0.67718E-02  0.79604E-02  0.00000E+00 -0.12908E-01  0.77975E-02  0.00000E+00 -0.19139E-01  0.76791E-02  0.00000E+00 -0.24641E-01  0.75915E-02  0.00000E+00 -0.30295E-01
          0.74623E-02  0.00000E+00 -0.35698E-01  0.72907E-02  0.00000E+00 -0.40978E-01  0.71020E-02  0.00000E+00 -0.46125E-01  0.68812E-02  0.00000E+00 -0.51066E-01  0.66483E-02  0.00000E+00 -0.55849E-01  0.63976E-02  0.00000E+00 -0.60394E-01
          0.61388E-02  0.00000E+00 -0.64743E-01  0.58708E-02  0.00000E+00 -0.68848E-01  0.55983E-02  0.00000E+00 -0.72732E-01  0.53214E-02  0.00000E+00 -0.76378E-01  0.50419E-02  0.00000E+00 -0.79793E-01  0.47607E-02  0.00000E+00 -0.82978E-01
          0.44787E-02  0.00000E+00 -0.85938E-01  0.41989E-02  0.00000E+00 -0.88679E-01  0.39215E-02  0.00000E+00 -0.91212E-01  0.36496E-02  0.00000E+00 -0.93548E-01  0.33869E-02  0.00000E+00 -0.95692E-01  0.31345E-02  0.00000E+00 -0.97703E-01
          0.29055E-02  0.00000E+00 -0.99500E-01  0.26815E-02  0.00000E+00 -0.10132E+00  0.25253E-02  0.00000E+00 -0.10281E+00  0.23027E-02  0.00000E+00 -0.10466E+00  0.22211E-02  0.00000E+00 -0.10583E+00  0.20300E-02  0.00000E+00 -0.10835E+00
          0.16392E-01  0.00000E+00 -0.21012E-02  0.14936E-01  0.00000E+00 -0.62990E-02  0.14330E-01  0.00000E+00 -0.12091E-01  0.14107E-01  0.00000E+00 -0.18019E-01  0.13860E-01  0.00000E+00 -0.23540E-01  0.13612E-01  0.00000E+00 -0.29272E-01
          0.13346E-01  0.00000E+00 -0.34709E-01  0.13025E-01  0.00000E+00 -0.40040E-01  0.12669E-01  0.00000E+00 -0.45219E-01  0.12278E-01  0.00000E+00 -0.50186E-01  0.11854E-01  0.00000E+00 -0.54997E-01  0.11410E-01  0.00000E+00 -0.59565E-01
          0.10944E-01  0.00000E+00 -0.63945E-01  0.10465E-01  0.00000E+00 -0.68078E-01  0.99736E-02  0.00000E+00 -0.71997E-01  0.94750E-02  0.00000E+00 -0.75676E-01  0.89699E-02  0.00000E+00 -0.79130E-01  0.84610E-02  0.00000E+00 -0.82353E-01
          0.79504E-02  0.00000E+00 -0.85355E-01  0.74410E-02  0.00000E+00 -0.88137E-01  0.69354E-02  0.00000E+00 -0.90713E-01  0.64398E-02  0.00000E+00 -0.93094E-01  0.59527E-02  0.00000E+00 -0.95275E-01  0.54958E-02  0.00000E+00 -0.97339E-01
          0.50488E-02  0.00000E+00 -0.99152E-01  0.46626E-02  0.00000E+00 -0.10104E+00  0.42944E-02  0.00000E+00 -0.10250E+00  0.39940E-02  0.00000E+00 -0.10442E+00  0.37925E-02  0.00000E+00 -0.10547E+00  0.37117E-02  0.00000E+00 -0.10827E+00
          0.21843E-01  0.00000E+00 -0.19387E-02  0.20742E-01  0.00000E+00 -0.63623E-02  0.20357E-01  0.00000E+00 -0.11903E-01  0.20138E-01  0.00000E+00 -0.17762E-01  0.19841E-01  0.00000E+00 -0.23187E-01  0.19514E-01  0.00000E+00 -0.28828E-01
          0.19131E-01  0.00000E+00 -0.34227E-01  0.18679E-01  0.00000E+00 -0.39536E-01  0.18183E-01  0.00000E+00 -0.44702E-01  0.17632E-01  0.00000E+00 -0.49672E-01  0.17043E-01  0.00000E+00 -0.54488E-01  0.16420E-01  0.00000E+00 -0.59072E-01
          0.15768E-01  0.00000E+00 -0.63474E-01  0.15097E-01  0.00000E+00 -0.67637E-01  0.14406E-01  0.00000E+00 -0.71593E-01  0.13704E-01  0.00000E+00 -0.75315E-01  0.12991E-01  0.00000E+00 -0.78818E-01  0.12271E-01  0.00000E+00 -0.82094E-01
          0.11548E-01  0.00000E+00 -0.85155E-01  0.10827E-01  0.00000E+00 -0.88000E-01  0.10110E-01  0.00000E+00 -0.90640E-01  0.94093E-02  0.00000E+00 -0.93093E-01  0.87221E-02  0.00000E+00 -0.95338E-01  0.80785E-02  0.00000E+00 -0.97480E-01
          0.74618E-02  0.00000E+00 -0.99363E-01  0.69181E-02  0.00000E+00 -0.10132E+00  0.64315E-02  0.00000E+00 -0.10288E+00  0.60246E-02  0.00000E+00 -0.10487E+00  0.57534E-02  0.00000E+00 -0.10611E+00  0.55437E-02  0.00000E+00 -0.10874E+00
          0.27234E-01  0.00000E+00 -0.19933E-02  0.26642E-01  0.00000E+00 -0.63914E-02  0.26405E-01  0.00000E+00 -0.11908E-01  0.26193E-01  0.00000E+00 -0.17779E-01  0.25885E-01  0.00000E+00 -0.23160E-01  0.25486E-01  0.00000E+00 -0.28791E-01
          0.25000E-01  0.00000E+00 -0.34181E-01  0.24435E-01  0.00000E+00 -0.39472E-01  0.23801E-01  0.00000E+00 -0.44638E-01  0.23097E-01  0.00000E+00 -0.49610E-01  0.22345E-01  0.00000E+00 -0.54432E-01  0.21544E-01  0.00000E+00 -0.59033E-01
          0.20707E-01  0.00000E+00 -0.63453E-01  0.19841E-01  0.00000E+00 -0.67644E-01  0.18949E-01  0.00000E+00 -0.71631E-01  0.18039E-01  0.00000E+00 -0.75390E-01  0.17112E-01  0.00000E+00 -0.78935E-01  0.16175E-01  0.00000E+00 -0.82257E-01
          0.15231E-01  0.00000E+00 -0.85367E-01  0.14285E-01  0.00000E+00 -0.88264E-01  0.13343E-01  0.00000E+00 -0.90955E-01  0.12417E-01  0.00000E+00 -0.93463E-01  0.11510E-01  0.00000E+00 -0.95759E-01  0.10643E-01  0.00000E+00 -0.97948E-01
          0.98240E-02  0.00000E+00 -0.99882E-01  0.90701E-02  0.00000E+00 -0.10187E+00  0.84120E-02  0.00000E+00 -0.10347E+00  0.78493E-02  0.00000E+00 -0.10545E+00  0.74698E-02  0.00000E+00 -0.10662E+00  0.73027E-02  0.00000E+00 -0.10941E+00
          0.32628E-01  0.00000E+00 -0.20608E-02  0.32326E-01  0.00000E+00 -0.65239E-02  0.32218E-01  0.00000E+00 -0.12041E-01  0.32073E-01  0.00000E+00 -0.17896E-01  0.31746E-01  0.00000E+00 -0.23293E-01  0.31285E-01  0.00000E+00 -0.28933E-01
          0.30723E-01  0.00000E+00 -0.34330E-01  0.30060E-01  0.00000E+00 -0.39632E-01  0.29308E-01  0.00000E+00 -0.44817E-01  0.28475E-01  0.00000E+00 -0.49802E-01  0.27579E-01  0.00000E+00 -0.54644E-01  0.26622E-01  0.00000E+00 -0.59269E-01
          0.25619E-01  0.00000E+00 -0.63714E-01  0.24576E-01  0.00000E+00 -0.67936E-01  0.23500E-01  0.00000E+00 -0.71956E-01  0.22395E-01  0.00000E+00 -0.75753E-01  0.21268E-01  0.00000E+00 -0.79340E-01  0.20123E-01  0.00000E+00 -0.82706E-01
          0.18967E-01  0.00000E+00 -0.85863E-01  0.17805E-01  0.00000E+00 -0.88810E-01  0.16645E-01  0.00000E+00 -0.91551E-01  0.15501E-01  0.00000E+00 -0.94112E-01  0.14383E-01  0.00000E+00 -0.96461E-01  0.13311E-01  0.00000E+00 -0.98701E-01
          0.12302E-01  0.00000E+00 -0.10069E+00  0.11383E-01  0.00000E+00 -0.10273E+00  0.10570E-01  0.00000E+00 -0.10438E+00  0.99037E-02  0.00000E+00 -0.10643E+00  0.94135E-02  0.00000E+00 -0.10770E+00  0.91549E-02  0.00000E+00 -0.11046E+00
          0.38064E-01  0.00000E+00 -0.21295E-02  0.37988E-01  0.00000E+00 -0.66341E-02  0.38044E-01  0.00000E+00 -0.12176E-01  0.37938E-01  0.00000E+00 -0.18073E-01  0.37596E-01  0.00000E+00 -0.23523E-01  0.37093E-01  0.00000E+00 -0.29182E-01
          0.36457E-01  0.00000E+00 -0.34628E-01  0.35696E-01  0.00000E+00 -0.39969E-01  0.34835E-01  0.00000E+00 -0.45192E-01  0.33877E-01  0.00000E+00 -0.50215E-01  0.32840E-01  0.00000E+00 -0.55096E-01  0.31732E-01  0.00000E+00 -0.59762E-01
          0.30568E-01  0.00000E+00 -0.64248E-01  0.29354E-01  0.00000E+00 -0.68515E-01  0.28097E-01  0.00000E+00 -0.72582E-01  0.26804E-01  0.00000E+00 -0.76429E-01  0.25481E-01  0.00000E+00 -0.80068E-01  0.24133E-01  0.00000E+00 -0.83489E-01
          0.22767E-01  0.00000E+00 -0.86701E-01  0.21392E-01  0.00000E+00 -0.89707E-01  0.20016E-01  0.00000E+00 -0.92505E-01  0.18653E-01  0.00000E+00 -0.95125E-01  0.17317E-01  0.00000E+00 -0.97530E-01  0.16031E-01  0.00000E+00 -0.99824E-01
          0.14812E-01  0.00000E+00 -0.10186E+00  0.13693E-01  0.00000E+00 -0.10394E+00  0.12697E-01  0.00000E+00 -0.10563E+00  0.11861E-01  0.00000E+00 -0.10769E+00  0.11267E-01  0.00000E+00 -0.10895E+00  0.10978E-01  0.00000E+00 -0.11178E+00
          0.43567E-01  0.00000E+00 -0.21961E-02  0.43639E-01  0.00000E+00 -0.67798E-02  0.43841E-01  0.00000E+00 -0.12379E-01  0.43791E-01  0.00000E+00 -0.18331E-01  0.43463E-01  0.00000E+00 -0.23838E-01  0.42921E-01  0.00000E+00 -0.29542E-01
          0.42218E-01  0.00000E+00 -0.35058E-01  0.41376E-01  0.00000E+00 -0.40446E-01  0.40416E-01  0.00000E+00 -0.45728E-01  0.39341E-01  0.00000E+00 -0.50806E-01  0.38175E-01  0.00000E+00 -0.55741E-01  0.36925E-01  0.00000E+00 -0.60464E-01
          0.35607E-01  0.00000E+00 -0.65004E-01  0.34226E-01  0.00000E+00 -0.69328E-01  0.32793E-01  0.00000E+00 -0.73452E-01  0.31312E-01  0.00000E+00 -0.77357E-01  0.29792E-01  0.00000E+00 -0.81054E-01  0.28238E-01  0.00000E+00 -0.84534E-01
          0.26658E-01  0.00000E+00 -0.87806E-01  0.25062E-01  0.00000E+00 -0.90871E-01  0.23461E-01  0.00000E+00 -0.93728E-01  0.21870E-01  0.00000E+00 -0.96405E-01  0.20309E-01  0.00000E+00 -0.98866E-01  0.18803E-01  0.00000E+00 -0.10121E+00
          0.17377E-01  0.00000E+00 -0.10330E+00  0.16068E-01  0.00000E+00 -0.10543E+00  0.14906E-01  0.00000E+00 -0.10716E+00  0.13940E-01  0.00000E+00 -0.10927E+00  0.13231E-01  0.00000E+00 -0.11059E+00  0.12862E-01  0.00000E+00 -0.11346E+00
          0.49130E-01  0.00000E+00 -0.22579E-02  0.49300E-01  0.00000E+00 -0.69135E-02  0.49653E-01  0.00000E+00 -0.12587E-01  0.49666E-01  0.00000E+00 -0.18602E-01  0.49338E-01  0.00000E+00 -0.24192E-01  0.48756E-01  0.00000E+00 -0.29961E-01
          0.47994E-01  0.00000E+00 -0.35557E-01  0.47071E-01  0.00000E+00 -0.41010E-01  0.46009E-01  0.00000E+00 -0.46368E-01  0.44819E-01  0.00000E+00 -0.51516E-01  0.43524E-01  0.00000E+00 -0.56521E-01  0.42132E-01  0.00000E+00 -0.61315E-01
          0.40659E-01  0.00000E+00 -0.65924E-01  0.39113E-01  0.00000E+00 -0.70321E-01  0.37504E-01  0.00000E+00 -0.74515E-01  0.35838E-01  0.00000E+00 -0.78492E-01  0.34124E-01  0.00000E+00 -0.82262E-01  0.32367E-01  0.00000E+00 -0.85816E-01
          0.30578E-01  0.00000E+00 -0.89160E-01  0.28767E-01  0.00000E+00 -0.92299E-01  0.26946E-01  0.00000E+00 -0.95228E-01  0.25135E-01  0.00000E+00 -0.97976E-01  0.23353E-01  0.00000E+00 -0.10051E+00  0.21630E-01  0.00000E+00 -0.10292E+00
          0.19993E-01  0.00000E+00 -0.10507E+00  0.18484E-01  0.00000E+00 -0.10724E+00  0.17135E-01  0.00000E+00 -0.10903E+00  0.16004E-01  0.00000E+00 -0.11117E+00  0.15176E-01  0.00000E+00 -0.11250E+00  0.14754E-01  0.00000E+00 -0.11542E+00
          0.54806E-01  0.00000E+00 -0.23106E-02  0.55049E-01  0.00000E+00 -0.70497E-02  0.55547E-01  0.00000E+00 -0.12813E-01  0.55623E-01  0.00000E+00 -0.18911E-01  0.55307E-01  0.00000E+00 -0.24598E-01  0.54696E-01  0.00000E+00 -0.30442E-01
          0.53879E-01  0.00000E+00 -0.36135E-01  0.52879E-01  0.00000E+00 -0.41670E-01  0.51722E-01  0.00000E+00 -0.47118E-01  0.50421E-01  0.00000E+00 -0.52352E-01  0.48998E-01  0.00000E+00 -0.57442E-01  0.47464E-01  0.00000E+00 -0.62322E-01
          0.45837E-01  0.00000E+00 -0.67015E-01  0.44123E-01  0.00000E+00 -0.71498E-01  0.42335E-01  0.00000E+00 -0.75775E-01  0.40478E-01  0.00000E+00 -0.79837E-01  0.38563E-01  0.00000E+00 -0.83691E-01  0.36595E-01  0.00000E+00 -0.87328E-01
          0.34586E-01  0.00000E+00 -0.90754E-01  0.32548E-01  0.00000E+00 -0.93974E-01  0.30495E-01  0.00000E+00 -0.96980E-01  0.28448E-01  0.00000E+00 -0.99803E-01  0.26432E-01  0.00000E+00 -0.10240E+00  0.24480E-01  0.00000E+00 -0.10488E+00
          0.22626E-01  0.00000E+00 -0.10709E+00  0.20917E-01  0.00000E+00 -0.10932E+00  0.19392E-01  0.00000E+00 -0.11116E+00  0.18118E-01  0.00000E+00 -0.11335E+00  0.17178E-01  0.00000E+00 -0.11473E+00  0.16688E-01  0.00000E+00 -0.11770E+00
          0.60600E-01  0.00000E+00 -0.23527E-02  0.60892E-01  0.00000E+00 -0.71761E-02  0.61531E-01  0.00000E+00 -0.13050E-01  0.61677E-01  0.00000E+00 -0.19236E-01  0.61371E-01  0.00000E+00 -0.25034E-01  0.60727E-01  0.00000E+00 -0.30967E-01
          0.59852E-01  0.00000E+00 -0.36769E-01  0.58772E-01  0.00000E+00 -0.42398E-01  0.57515E-01  0.00000E+00 -0.47948E-01  0.56095E-01  0.00000E+00 -0.53281E-01  0.54539E-01  0.00000E+00 -0.58469E-01  0.52858E-01  0.00000E+00 -0.63449E-01
          0.51069E-01  0.00000E+00 -0.68238E-01  0.49182E-01  0.00000E+00 -0.72819E-01  0.47208E-01  0.00000E+00 -0.77194E-01  0.45156E-01  0.00000E+00 -0.81353E-01  0.43035E-01  0.00000E+00 -0.85303E-01  0.40855E-01  0.00000E+00 -0.89036E-01
          0.38625E-01  0.00000E+00 -0.92558E-01  0.36361E-01  0.00000E+00 -0.95870E-01  0.34078E-01  0.00000E+00 -0.98968E-01  0.31801E-01  0.00000E+00 -0.10188E+00  0.29557E-01  0.00000E+00 -0.10456E+00  0.27382E-01  0.00000E+00 -0.10712E+00
          0.25314E-01  0.00000E+00 -0.10941E+00  0.23404E-01  0.00000E+00 -0.11170E+00  0.21696E-01  0.00000E+00 -0.11360E+00  0.20262E-01  0.00000E+00 -0.11584E+00  0.19200E-01  0.00000E+00 -0.11725E+00  0.18644E-01  0.00000E+00 -0.12027E+00
          0.66576E-01  0.00000E+00 -0.23877E-02  0.66922E-01  0.00000E+00 -0.72970E-02  0.67700E-01  0.00000E+00 -0.13293E-01  0.67906E-01  0.00000E+00 -0.19582E-01  0.67609E-01  0.00000E+00 -0.25504E-01  0.66932E-01  0.00000E+00 -0.31541E-01
          0.65998E-01  0.00000E+00 -0.37463E-01  0.64832E-01  0.00000E+00 -0.43203E-01  0.63469E-01  0.00000E+00 -0.48868E-01  0.61926E-01  0.00000E+00 -0.54315E-01  0.60229E-01  0.00000E+00 -0.59615E-01  0.58392E-01  0.00000E+00 -0.64709E-01
          0.56433E-01  0.00000E+00 -0.69610E-01  0.54362E-01  0.00000E+00 -0.74304E-01  0.52193E-01  0.00000E+00 -0.78789E-01  0.49935E-01  0.00000E+00 -0.83060E-01  0.47598E-01  0.00000E+00 -0.87118E-01  0.45192E-01  0.00000E+00 -0.90960E-01
          0.42730E-01  0.00000E+00 -0.94588E-01  0.40227E-01  0.00000E+00 -0.98004E-01  0.37702E-01  0.00000E+00 -0.10120E+00  0.35181E-01  0.00000E+00 -0.10421E+00  0.32696E-01  0.00000E+00 -0.10698E+00  0.30287E-01  0.00000E+00 -0.10962E+00
          0.27997E-01  0.00000E+00 -0.11198E+00  0.25884E-01  0.00000E+00 -0.11435E+00  0.23997E-01  0.00000E+00 -0.11630E+00  0.22421E-01  0.00000E+00 -0.11860E+00  0.21252E-01  0.00000E+00 -0.12005E+00  0.20635E-01  0.00000E+00 -0.12314E+00
          0.72740E-01  0.00000E+00 -0.24114E-02  0.73142E-01  0.00000E+00 -0.74119E-02  0.74055E-01  0.00000E+00 -0.13551E-01  0.74322E-01  0.00000E+00 -0.19951E-01  0.74032E-01  0.00000E+00 -0.26009E-01  0.73316E-01  0.00000E+00 -0.32164E-01
          0.72313E-01  0.00000E+00 -0.38219E-01  0.71054E-01  0.00000E+00 -0.44082E-01  0.69576E-01  0.00000E+00 -0.49876E-01  0.67898E-01  0.00000E+00 -0.55449E-01  0.66048E-01  0.00000E+00 -0.60875E-01  0.64042E-01  0.00000E+00 -0.66096E-01
          0.61901E-01  0.00000E+00 -0.71121E-01  0.59635E-01  0.00000E+00 -0.75940E-01  0.57258E-01  0.00000E+00 -0.80548E-01  0.54783E-01  0.00000E+00 -0.84942E-01  0.52218E-01  0.00000E+00 -0.89122E-01  0.49578E-01  0.00000E+00 -0.93083E-01
          0.46876E-01  0.00000E+00 -0.96828E-01  0.44129E-01  0.00000E+00 -0.10036E+00  0.41359E-01  0.00000E+00 -0.10366E+00  0.38596E-01  0.00000E+00 -0.10678E+00  0.35872E-01  0.00000E+00 -0.10965E+00  0.33233E-01  0.00000E+00 -0.11238E+00
          0.30727E-01  0.00000E+00 -0.11483E+00  0.28416E-01  0.00000E+00 -0.11727E+00  0.26351E-01  0.00000E+00 -0.11930E+00  0.24624E-01  0.00000E+00 -0.12165E+00  0.23340E-01  0.00000E+00 -0.12315E+00  0.22659E-01  0.00000E+00 -0.12630E+00
          0.79158E-01  0.00000E+00 -0.24330E-02  0.79644E-01  0.00000E+00 -0.75253E-02  0.80691E-01  0.00000E+00 -0.13821E-01  0.81009E-01  0.00000E+00 -0.20347E-01  0.80714E-01  0.00000E+00 -0.26555E-01  0.79948E-01  0.00000E+00 -0.32842E-01
          0.78867E-01  0.00000E+00 -0.39042E-01  0.77501E-01  0.00000E+00 -0.45045E-01  0.75893E-01  0.00000E+00 -0.50980E-01  0.74065E-01  0.00000E+00 -0.56695E-01  0.72047E-01  0.00000E+00 -0.62261E-01  0.69857E-01  0.00000E+00 -0.67623E-01
          0.67516E-01  0.00000E+00 -0.72787E-01  0.65038E-01  0.00000E+00 -0.77746E-01  0.62439E-01  0.00000E+00 -0.82490E-01  0.59729E-01  0.00000E+00 -0.87021E-01  0.56923E-01  0.00000E+00 -0.91333E-01  0.54035E-01  0.00000E+00 -0.95426E-01
          0.51079E-01  0.00000E+00 -0.99298E-01  0.48075E-01  0.00000E+00 -0.10295E+00  0.45049E-01  0.00000E+00 -0.10638E+00  0.42031E-01  0.00000E+00 -0.10960E+00  0.39059E-01  0.00000E+00 -0.11258E+00  0.36182E-01  0.00000E+00 -0.11540E+00
          0.33453E-01  0.00000E+00 -0.11794E+00  0.30940E-01  0.00000E+00 -0.12046E+00  0.28702E-01  0.00000E+00 -0.12256E+00  0.26837E-01  0.00000E+00 -0.12498E+00  0.25455E-01  0.00000E+00 -0.12652E+00  0.24720E-01  0.00000E+00 -0.12975E+00
          0.85836E-01  0.00000E+00 -0.24488E-02  0.86428E-01  0.00000E+00 -0.76412E-02  0.87606E-01  0.00000E+00 -0.14113E-01  0.87965E-01  0.00000E+00 -0.20779E-01  0.87660E-01  0.00000E+00 -0.27150E-01  0.86836E-01  0.00000E+00 -0.33586E-01
          0.85663E-01  0.00000E+00 -0.39945E-01  0.84178E-01  0.00000E+00 -0.46102E-01  0.82425E-01  0.00000E+00 -0.52194E-01  0.80431E-01  0.00000E+00 -0.58065E-01  0.78227E-01  0.00000E+00 -0.63785E-01  0.75835E-01  0.00000E+00 -0.69303E-01
          0.73278E-01  0.00000E+00 -0.74618E-01  0.70571E-01  0.00000E+00 -0.79730E-01  0.67731E-01  0.00000E+00 -0.84623E-01  0.64772E-01  0.00000E+00 -0.89301E-01  0.61708E-01  0.00000E+00 -0.93757E-01  0.58557E-01  0.00000E+00 -0.97989E-01
          0.55335E-01  0.00000E+00 -0.10200E+00  0.52065E-01  0.00000E+00 -0.10578E+00  0.48774E-01  0.00000E+00 -0.10933E+00  0.45497E-01  0.00000E+00 -0.11267E+00  0.42275E-01  0.00000E+00 -0.11576E+00  0.39162E-01  0.00000E+00 -0.11869E+00
          0.36215E-01  0.00000E+00 -0.12132E+00  0.33506E-01  0.00000E+00 -0.12393E+00  0.31099E-01  0.00000E+00 -0.12610E+00  0.29096E-01  0.00000E+00 -0.12859E+00  0.27614E-01  0.00000E+00 -0.13018E+00  0.26824E-01  0.00000E+00 -0.13350E+00
          0.92825E-01  0.00000E+00 -0.24688E-02  0.93568E-01  0.00000E+00 -0.77665E-02  0.94878E-01  0.00000E+00 -0.14430E-01  0.95268E-01  0.00000E+00 -0.21254E-01  0.94937E-01  0.00000E+00 -0.27804E-01  0.94040E-01  0.00000E+00 -0.34406E-01
          0.92758E-01  0.00000E+00 -0.40939E-01  0.91134E-01  0.00000E+00 -0.47267E-01  0.89216E-01  0.00000E+00 -0.53530E-01  0.87036E-01  0.00000E+00 -0.59573E-01  0.84626E-01  0.00000E+00 -0.65462E-01  0.82011E-01  0.00000E+00 -0.71149E-01
          0.79216E-01  0.00000E+00 -0.76631E-01  0.76259E-01  0.00000E+00 -0.81908E-01  0.73159E-01  0.00000E+00 -0.86962E-01  0.69931E-01  0.00000E+00 -0.91799E-01  0.66593E-01  0.00000E+00 -0.96408E-01  0.63163E-01  0.00000E+00 -0.10079E+00
          0.59660E-01  0.00000E+00 -0.10494E+00  0.56111E-01  0.00000E+00 -0.10886E+00  0.52544E-01  0.00000E+00 -0.11254E+00  0.48998E-01  0.00000E+00 -0.11600E+00  0.45519E-01  0.00000E+00 -0.11921E+00  0.42162E-01  0.00000E+00 -0.12224E+00
          0.38991E-01  0.00000E+00 -0.12497E+00  0.36085E-01  0.00000E+00 -0.12766E+00  0.33510E-01  0.00000E+00 -0.12991E+00  0.31378E-01  0.00000E+00 -0.13248E+00  0.29809E-01  0.00000E+00 -0.13412E+00  0.28973E-01  0.00000E+00 -0.13752E+00
          0.10013E+00  0.00000E+00 -0.24919E-02  0.10107E+00  0.00000E+00 -0.79077E-02  0.10250E+00  0.00000E+00 -0.14785E-01  0.10291E+00  0.00000E+00 -0.21786E-01  0.10254E+00  0.00000E+00 -0.28530E-01  0.10156E+00  0.00000E+00 -0.35318E-01