<?xml version="1.0"?>
<VTKFile type="UnstructuredGrid" version="0.1" byte_order="LittleEndian" compressor="vtkZLibDataCompressor">
<UnstructuredGrid>
  <Piece NumberOfPoints="1800"        NumberOfCells="1"      >
    <Points>
      <DataArray type="Float32" NumberOfComponents="3" format="ascii" >
        0.10294E-01  0.00000E+00  0.24803E-02  0.70288E-02  0.00000E+00  0.96618E-02  0.64642E-02  0.00000E+00  0.17355E-01  0.69929E-02  0.00000E+00  0.24252E-01  0.70527E-02  0.00000E+00  0.30931E-01  0.68697E-02  0.00000E+00  0.37981E-01
        0.67306E-02  0.00000E+00  0.45133E-01  0.66523E-02  0.00000E+00  0.52359E-01  0.65707E-02  0.00000E+00  0.59697E-01  0.64987E-02  0.00000E+00  0.67119E-01  0.64367E-02  0.00000E+00  0.74617E-01  0.63786E-02  0.00000E+00  0.82185E-01
        0.63244E-02  0.00000E+00  0.89819E-01  0.62722E-02  0.00000E+00  0.97517E-01  0.62216E-02  0.00000E+00  0.10528E+00  0.61727E-02  0.00000E+00  0.11310E+00  0.61248E-02  0.00000E+00  0.12098E+00  0.60784E-02  0.00000E+00  0.12892E+00
        0.60333E-02  0.00000E+00  0.13692E+00  0.59897E-02  0.00000E+00  0.14498E+00  0.59483E-02  0.00000E+00  0.15309E+00  0.59084E-02  0.00000E+00  0.16126E+00  0.58715E-02  0.00000E+00  0.16948E+00  0.58378E-02  0.00000E+00  0.17774E+00
        0.58012E-02  0.00000E+00  0.18605E+00  0.57878E-02  0.00000E+00  0.19442E+00  0.57215E-02  0.00000E+00  0.20277E+00  0.57712E-02  0.00000E+00  0.21124E+00  0.56885E-02  0.00000E+00  0.21981E+00  0.54087E-02  0.00000E+00  0.22756E+00
        0.26237E-01  0.00000E+00  0.36250E-02  0.19194E-01  0.00000E+00  0.10561E-01  0.21224E-01  0.00000E+00  0.17944E-01  0.21435E-01  0.00000E+00  0.24411E-01  0.20431E-01  0.00000E+00  0.31260E-01  0.20651E-01  0.00000E+00  0.38484E-01
        0.20110E-01  0.00000E+00  0.45568E-01  0.19941E-01  0.00000E+00  0.52792E-01  0.19689E-01  0.00000E+00  0.60137E-01  0.19503E-01  0.00000E+00  0.67542E-01  0.19327E-01  0.00000E+00  0.75024E-01  0.19164E-01  0.00000E+00  0.82579E-01
        0.19010E-01  0.00000E+00  0.90199E-01  0.18862E-01  0.00000E+00  0.97886E-01  0.18721E-01  0.00000E+00  0.10564E+00  0.18585E-01  0.00000E+00  0.11345E+00  0.18453E-01  0.00000E+00  0.12132E+00  0.18327E-01  0.00000E+00  0.12924E+00
        0.18205E-01  0.00000E+00  0.13723E+00  0.18088E-01  0.00000E+00  0.14527E+00  0.17975E-01  0.00000E+00  0.15336E+00  0.17868E-01  0.00000E+00  0.16150E+00  0.17766E-01  0.00000E+00  0.16969E+00  0.17676E-01  0.00000E+00  0.17794E+00
        0.17577E-01  0.00000E+00  0.18619E+00  0.17518E-01  0.00000E+00  0.19457E+00  0.17407E-01  0.00000E+00  0.20283E+00  0.17386E-01  0.00000E+00  0.21130E+00  0.17263E-01  0.00000E+00  0.21991E+00  0.17115E-01  0.00000E+00  0.22743E+00
        0.41080E-01  0.00000E+00  0.38397E-02  0.33515E-01  0.00000E+00  0.10847E-01  0.35812E-01  0.00000E+00  0.18101E-01  0.35601E-01  0.00000E+00  0.24909E-01  0.34578E-01  0.00000E+00  0.31862E-01  0.34555E-01  0.00000E+00  0.39029E-01
        0.33812E-01  0.00000E+00  0.46160E-01  0.33490E-01  0.00000E+00  0.53444E-01  0.33072E-01  0.00000E+00  0.60818E-01  0.32753E-01  0.00000E+00  0.68255E-01  0.32453E-01  0.00000E+00  0.75771E-01  0.32176E-01  0.00000E+00  0.83352E-01
        0.31917E-01  0.00000E+00  0.90992E-01  0.31669E-01  0.00000E+00  0.98691E-01  0.31432E-01  0.00000E+00  0.10645E+00  0.31204E-01  0.00000E+00  0.11426E+00  0.30985E-01  0.00000E+00  0.12213E+00  0.30774E-01  0.00000E+00  0.13005E+00
        0.30571E-01  0.00000E+00  0.13802E+00  0.30377E-01  0.00000E+00  0.14604E+00  0.30191E-01  0.00000E+00  0.15412E+00  0.30015E-01  0.00000E+00  0.16223E+00  0.29848E-01  0.00000E+00  0.17040E+00  0.29693E-01  0.00000E+00  0.17862E+00
        0.29548E-01  0.00000E+00  0.18683E+00  0.29416E-01  0.00000E+00  0.19521E+00  0.29291E-01  0.00000E+00  0.20341E+00  0.29181E-01  0.00000E+00  0.21187E+00  0.29062E-01  0.00000E+00  0.22044E+00  0.28956E-01  0.00000E+00  0.22784E+00
        0.55244E-01  0.00000E+00  0.39856E-02  0.48408E-01  0.00000E+00  0.11108E-01  0.49546E-01  0.00000E+00  0.18526E-01  0.50211E-01  0.00000E+00  0.25417E-01  0.48644E-01  0.00000E+00  0.32356E-01  0.48535E-01  0.00000E+00  0.39512E-01
        0.47611E-01  0.00000E+00  0.46661E-01  0.47086E-01  0.00000E+00  0.53954E-01  0.46546E-01  0.00000E+00  0.61332E-01  0.46096E-01  0.00000E+00  0.68779E-01  0.45688E-01  0.00000E+00  0.76301E-01  0.45310E-01  0.00000E+00  0.83886E-01
        0.44957E-01  0.00000E+00  0.91529E-01  0.44619E-01  0.00000E+00  0.99230E-01  0.44295E-01  0.00000E+00  0.10699E+00  0.43984E-01  0.00000E+00  0.11479E+00  0.43684E-01  0.00000E+00  0.12265E+00  0.43395E-01  0.00000E+00  0.13057E+00
        0.43118E-01  0.00000E+00  0.13853E+00  0.42853E-01  0.00000E+00  0.14653E+00  0.42600E-01  0.00000E+00  0.15459E+00  0.42360E-01  0.00000E+00  0.16268E+00  0.42133E-01  0.00000E+00  0.17082E+00  0.41921E-01  0.00000E+00  0.17901E+00
        0.41726E-01  0.00000E+00  0.18719E+00  0.41542E-01  0.00000E+00  0.19552E+00  0.41386E-01  0.00000E+00  0.20367E+00  0.41227E-01  0.00000E+00  0.21208E+00  0.41129E-01  0.00000E+00  0.22054E+00  0.41000E-01  0.00000E+00  0.22792E+00
        0.68377E-01  0.00000E+00  0.41816E-02  0.63151E-01  0.00000E+00  0.11629E-01  0.63441E-01  0.00000E+00  0.18888E-01  0.64510E-01  0.00000E+00  0.25750E-01  0.62940E-01  0.00000E+00  0.32739E-01  0.62480E-01  0.00000E+00  0.39854E-01
        0.61436E-01  0.00000E+00  0.46980E-01  0.60714E-01  0.00000E+00  0.54260E-01  0.60032E-01  0.00000E+00  0.61619E-01  0.59447E-01  0.00000E+00  0.69054E-01  0.58920E-01  0.00000E+00  0.76570E-01  0.58434E-01  0.00000E+00  0.84151E-01
        0.57980E-01  0.00000E+00  0.91795E-01  0.57548E-01  0.00000E+00  0.99497E-01  0.57135E-01  0.00000E+00  0.10725E+00  0.56738E-01  0.00000E+00  0.11506E+00  0.56357E-01  0.00000E+00  0.12292E+00  0.55991E-01  0.00000E+00  0.13083E+00
        0.55639E-01  0.00000E+00  0.13879E+00  0.55303E-01  0.00000E+00  0.14678E+00  0.54982E-01  0.00000E+00  0.15483E+00  0.54678E-01  0.00000E+00  0.16291E+00  0.54391E-01  0.00000E+00  0.17103E+00  0.54124E-01  0.00000E+00  0.17920E+00
        0.53873E-01  0.00000E+00  0.18735E+00  0.53647E-01  0.00000E+00  0.19567E+00  0.53444E-01  0.00000E+00  0.20378E+00  0.53260E-01  0.00000E+00  0.21217E+00  0.53131E-01  0.00000E+00  0.22062E+00  0.53020E-01  0.00000E+00  0.22794E+00
        0.80441E-01  0.00000E+00  0.43699E-02  0.78009E-01  0.00000E+00  0.12272E-01  0.77551E-01  0.00000E+00  0.19208E-01  0.78835E-01  0.00000E+00  0.26023E-01  0.77245E-01  0.00000E+00  0.33019E-01  0.76455E-01  0.00000E+00  0.40101E-01
        0.75281E-01  0.00000E+00  0.47217E-01  0.74361E-01  0.00000E+00  0.54481E-01  0.73528E-01  0.00000E+00  0.61821E-01  0.72804E-01  0.00000E+00  0.69244E-01  0.72153E-01  0.00000E+00  0.76748E-01  0.71557E-01  0.00000E+00  0.84319E-01
        0.71002E-01  0.00000E+00  0.91955E-01  0.70477E-01  0.00000E+00  0.99650E-01  0.69977E-01  0.00000E+00  0.10740E+00  0.69500E-01  0.00000E+00  0.11520E+00  0.69042E-01  0.00000E+00  0.12306E+00  0.68604E-01  0.00000E+00  0.13096E+00
        0.68184E-01  0.00000E+00  0.13890E+00  0.67783E-01  0.00000E+00  0.14689E+00  0.67402E-01  0.00000E+00  0.15492E+00  0.67041E-01  0.00000E+00  0.16299E+00  0.66701E-01  0.00000E+00  0.17109E+00  0.66386E-01  0.00000E+00  0.17924E+00
        0.66093E-01  0.00000E+00  0.18737E+00  0.65828E-01  0.00000E+00  0.19566E+00  0.65597E-01  0.00000E+00  0.20374E+00  0.65393E-01  0.00000E+00  0.21211E+00  0.65259E-01  0.00000E+00  0.22050E+00  0.65117E-01  0.00000E+00  0.22779E+00
        0.91871E-01  0.00000E+00  0.44294E-02  0.93068E-01  0.00000E+00  0.12551E-01  0.92000E-01  0.00000E+00  0.19371E-01  0.93130E-01  0.00000E+00  0.26147E-01  0.91633E-01  0.00000E+00  0.33142E-01  0.90467E-01  0.00000E+00  0.40207E-01
        0.89176E-01  0.00000E+00  0.47325E-01  0.88062E-01  0.00000E+00  0.54573E-01  0.87075E-01  0.00000E+00  0.61899E-01  0.86209E-01  0.00000E+00  0.69307E-01  0.85431E-01  0.00000E+00  0.76796E-01  0.84720E-01  0.00000E+00  0.84353E-01
        0.84061E-01  0.00000E+00  0.91976E-01  0.83441E-01  0.00000E+00  0.99660E-01  0.82852E-01  0.00000E+00  0.10740E+00  0.82292E-01  0.00000E+00  0.11519E+00  0.81757E-01  0.00000E+00  0.12304E+00  0.81245E-01  0.00000E+00  0.13093E+00
        0.80757E-01  0.00000E+00  0.13886E+00  0.80291E-01  0.00000E+00  0.14684E+00  0.79849E-01  0.00000E+00  0.15486E+00  0.79432E-01  0.00000E+00  0.16291E+00  0.79040E-01  0.00000E+00  0.17100E+00  0.78676E-01  0.00000E+00  0.17913E+00
        0.78339E-01  0.00000E+00  0.18725E+00  0.78037E-01  0.00000E+00  0.19552E+00  0.77770E-01  0.00000E+00  0.20357E+00  0.77541E-01  0.00000E+00  0.21193E+00  0.77378E-01  0.00000E+00  0.22031E+00  0.77223E-01  0.00000E+00  0.22757E+00
        0.10353E+00  0.00000E+00  0.43489E-02  0.10729E+00  0.00000E+00  0.12351E-01  0.10681E+00  0.00000E+00  0.19439E-01  0.10743E+00  0.00000E+00  0.26160E-01  0.10604E+00  0.00000E+00  0.33111E-01  0.10451E+00  0.00000E+00  0.40187E-01
        0.10309E+00  0.00000E+00  0.47311E-01  0.10179E+00  0.00000E+00  0.54546E-01  0.10065E+00  0.00000E+00  0.61870E-01  0.99640E-01  0.00000E+00  0.69267E-01  0.98733E-01  0.00000E+00  0.76744E-01  0.97907E-01  0.00000E+00  0.84290E-01
        0.97141E-01  0.00000E+00  0.91901E-01  0.96423E-01  0.00000E+00  0.99573E-01  0.95746E-01  0.00000E+00  0.10730E+00  0.95102E-01  0.00000E+00  0.11508E+00  0.94489E-01  0.00000E+00  0.12291E+00  0.93905E-01  0.00000E+00  0.13079E+00
        0.93349E-01  0.00000E+00  0.13871E+00  0.92821E-01  0.00000E+00  0.14668E+00  0.92320E-01  0.00000E+00  0.15468E+00  0.91848E-01  0.00000E+00  0.16272E+00  0.91405E-01  0.00000E+00  0.17080E+00  0.90996E-01  0.00000E+00  0.17892E+00
        0.90618E-01  0.00000E+00  0.18701E+00  0.90281E-01  0.00000E+00  0.19527E+00  0.89984E-01  0.00000E+00  0.20330E+00  0.89733E-01  0.00000E+00  0.21164E+00  0.89556E-01  0.00000E+00  0.21999E+00  0.89374E-01  0.00000E+00  0.22722E+00
[...]
<PointData>
      <DataArray type="Float32" Name="Velocity vectors"  NumberOfComponents="3"  format="ascii" >
          0.22229E-01  0.00000E+00 -0.11014E-02  0.37672E-02  0.00000E+00 -0.83455E-02  0.81881E-02  0.00000E+00 -0.14359E-01  0.13797E-01  0.00000E+00 -0.30353E-01  0.15729E-01  0.00000E+00 -0.47347E-01  0.12837E-01  0.00000E+00 -0.60008E-01
          0.96851E-02  0.00000E+00 -0.70706E-01  0.87841E-02  0.00000E+00 -0.81018E-01  0.80330E-02  0.00000E+00 -0.90441E-01  0.73148E-02  0.00000E+00 -0.99224E-01  0.69669E-02  0.00000E+00 -0.10778E+00  0.66893E-02  0.00000E+00 -0.11627E+00
          0.64897E-02  0.00000E+00 -0.12473E+00  0.63310E-02  0.00000E+00 -0.13322E+00  0.61925E-02  0.00000E+00 -0.14172E+00  0.60766E-02  0.00000E+00 -0.15023E+00  0.59717E-02  0.00000E+00 -0.15875E+00  0.58750E-02  0.00000E+00 -0.16727E+00
          0.57779E-02  0.00000E+00 -0.17580E+00  0.56787E-02  0.00000E+00 -0.18436E+00  0.55655E-02  0.00000E+00 -0.19297E+00  0.54125E-02  0.00000E+00 -0.20158E+00  0.52912E-02  0.00000E+00 -0.21009E+00  0.50808E-02  0.00000E+00 -0.21863E+00
          0.49307E-02  0.00000E+00 -0.22690E+00  0.48806E-02  0.00000E+00 -0.23509E+00  0.41748E-02  0.00000E+00 -0.24353E+00  0.53037E-02  0.00000E+00 -0.25065E+00  0.37180E-02  0.00000E+00 -0.25875E+00  0.31212E-02  0.00000E+00 -0.27010E+00
          0.39061E-01  0.00000E+00 -0.20209E-02  0.52002E-02  0.00000E+00 -0.13439E-01  0.56881E-01  0.00000E+00 -0.27160E-01  0.52028E-01  0.00000E+00 -0.40158E-01  0.21432E-01  0.00000E+00 -0.57686E-01  0.38988E-01  0.00000E+00 -0.64202E-01
          0.23049E-01  0.00000E+00 -0.73593E-01  0.24583E-01  0.00000E+00 -0.82803E-01  0.21108E-01  0.00000E+00 -0.90683E-01  0.20220E-01  0.00000E+00 -0.98339E-01  0.19596E-01  0.00000E+00 -0.10642E+00  0.19184E-01  0.00000E+00 -0.11436E+00
          0.18899E-01  0.00000E+00 -0.12247E+00  0.18603E-01  0.00000E+00 -0.13070E+00  0.18288E-01  0.00000E+00 -0.13897E+00  0.17966E-01  0.00000E+00 -0.14730E+00  0.17618E-01  0.00000E+00 -0.15565E+00  0.17287E-01  0.00000E+00 -0.16400E+00
          0.17011E-01  0.00000E+00 -0.17236E+00  0.16813E-01  0.00000E+00 -0.18073E+00  0.16580E-01  0.00000E+00 -0.18911E+00  0.16257E-01  0.00000E+00 -0.19761E+00  0.15929E-01  0.00000E+00 -0.20584E+00  0.15553E-01  0.00000E+00 -0.21439E+00
          0.15034E-01  0.00000E+00 -0.22270E+00  0.14928E-01  0.00000E+00 -0.23036E+00  0.13834E-01  0.00000E+00 -0.24003E+00  0.14576E-01  0.00000E+00 -0.24595E+00  0.13012E-01  0.00000E+00 -0.25408E+00  0.13115E-01  0.00000E+00 -0.26705E+00
          0.67211E-01  0.00000E+00 -0.53728E-02  0.28694E-01  0.00000E+00 -0.16741E-01  0.94072E-01  0.00000E+00 -0.31325E-01  0.74435E-01  0.00000E+00 -0.39023E-01  0.45250E-01  0.00000E+00 -0.56508E-01  0.58256E-01  0.00000E+00 -0.63952E-01
          0.38935E-01  0.00000E+00 -0.73661E-01  0.40240E-01  0.00000E+00 -0.82396E-01  0.35285E-01  0.00000E+00 -0.89880E-01  0.34398E-01  0.00000E+00 -0.97543E-01  0.33346E-01  0.00000E+00 -0.10523E+00  0.32740E-01  0.00000E+00 -0.11266E+00
          0.32303E-01  0.00000E+00 -0.12028E+00  0.31881E-01  0.00000E+00 -0.12796E+00  0.31458E-01  0.00000E+00 -0.13574E+00  0.31049E-01  0.00000E+00 -0.14366E+00  0.30637E-01  0.00000E+00 -0.15169E+00  0.30254E-01  0.00000E+00 -0.15981E+00
          0.29880E-01  0.00000E+00 -0.16805E+00  0.29489E-01  0.00000E+00 -0.17628E+00  0.29063E-01  0.00000E+00 -0.18448E+00  0.28604E-01  0.00000E+00 -0.19288E+00  0.28072E-01  0.00000E+00 -0.20089E+00  0.27541E-01  0.00000E+00 -0.20944E+00
          0.26930E-01  0.00000E+00 -0.21777E+00  0.26356E-01  0.00000E+00 -0.22525E+00  0.25681E-01  0.00000E+00 -0.23547E+00  0.25230E-01  0.00000E+00 -0.24114E+00  0.24266E-01  0.00000E+00 -0.25000E+00  0.23625E-01  0.00000E+00 -0.26311E+00
          0.11142E+00  0.00000E+00 -0.62070E-02  0.60586E-01  0.00000E+00 -0.25484E-01  0.95880E-01  0.00000E+00 -0.26697E-01  0.11564E+00  0.00000E+00 -0.33277E-01  0.61571E-01  0.00000E+00 -0.52950E-01  0.78079E-01  0.00000E+00 -0.60539E-01
          0.55374E-01  0.00000E+00 -0.70779E-01  0.53873E-01  0.00000E+00 -0.79199E-01  0.48985E-01  0.00000E+00 -0.86862E-01  0.47247E-01  0.00000E+00 -0.94503E-01  0.46048E-01  0.00000E+00 -0.10209E+00  0.45371E-01  0.00000E+00 -0.10958E+00
          0.44934E-01  0.00000E+00 -0.11722E+00  0.44569E-01  0.00000E+00 -0.12492E+00  0.44210E-01  0.00000E+00 -0.13273E+00  0.43844E-01  0.00000E+00 -0.14066E+00  0.43437E-01  0.00000E+00 -0.14868E+00  0.43009E-01  0.00000E+00 -0.15674E+00
          0.42563E-01  0.00000E+00 -0.16490E+00  0.42105E-01  0.00000E+00 -0.17308E+00  0.41604E-01  0.00000E+00 -0.18125E+00  0.41085E-01  0.00000E+00 -0.18969E+00  0.40486E-01  0.00000E+00 -0.19774E+00  0.39889E-01  0.00000E+00 -0.20637E+00
          0.39239E-01  0.00000E+00 -0.21483E+00  0.38518E-01  0.00000E+00 -0.22246E+00  0.37957E-01  0.00000E+00 -0.23295E+00  0.37081E-01  0.00000E+00 -0.23871E+00  0.36852E-01  0.00000E+00 -0.24824E+00  0.36156E-01  0.00000E+00 -0.26179E+00
          0.14259E+00  0.00000E+00 -0.33940E-02  0.83927E-01  0.00000E+00 -0.24145E-01  0.99421E-01  0.00000E+00 -0.22061E-01  0.14281E+00  0.00000E+00 -0.30838E-01  0.88229E-01  0.00000E+00 -0.46793E-01  0.94231E-01  0.00000E+00 -0.54994E-01
          0.72940E-01  0.00000E+00 -0.66038E-01  0.68577E-01  0.00000E+00 -0.74682E-01  0.63480E-01  0.00000E+00 -0.83101E-01  0.61218E-01  0.00000E+00 -0.91425E-01  0.59790E-01  0.00000E+00 -0.99506E-01  0.58918E-01  0.00000E+00 -0.10749E+00
          0.58334E-01  0.00000E+00 -0.11546E+00  0.57859E-01  0.00000E+00 -0.12337E+00  0.57412E-01  0.00000E+00 -0.13129E+00  0.56971E-01  0.00000E+00 -0.13924E+00  0.56505E-01  0.00000E+00 -0.14724E+00  0.56022E-01  0.00000E+00 -0.15525E+00
          0.55507E-01  0.00000E+00 -0.16337E+00  0.54962E-01  0.00000E+00 -0.17149E+00  0.54384E-01  0.00000E+00 -0.17962E+00  0.53789E-01  0.00000E+00 -0.18803E+00  0.53154E-01  0.00000E+00 -0.19606E+00  0.52528E-01  0.00000E+00 -0.20474E+00
          0.51827E-01  0.00000E+00 -0.21321E+00  0.51175E-01  0.00000E+00 -0.22094E+00  0.50457E-01  0.00000E+00 -0.23163E+00  0.49804E-01  0.00000E+00 -0.23747E+00  0.49226E-01  0.00000E+00 -0.24728E+00  0.48792E-01  0.00000E+00 -0.26084E+00
          0.14646E+00  0.00000E+00  0.21083E-02  0.11436E+00  0.00000E+00 -0.95964E-02  0.10492E+00  0.00000E+00 -0.14733E-01  0.17032E+00  0.00000E+00 -0.26674E-01  0.11421E+00  0.00000E+00 -0.40225E-01  0.11188E+00  0.00000E+00 -0.49354E-01
          0.91776E-01  0.00000E+00 -0.61042E-01  0.84800E-01  0.00000E+00 -0.70243E-01  0.79138E-01  0.00000E+00 -0.79442E-01  0.76068E-01  0.00000E+00 -0.88353E-01  0.74096E-01  0.00000E+00 -0.96857E-01  0.72799E-01  0.00000E+00 -0.10522E+00
          0.71868E-01  0.00000E+00 -0.11346E+00  0.71138E-01  0.00000E+00 -0.12160E+00  0.70510E-01  0.00000E+00 -0.12968E+00  0.69935E-01  0.00000E+00 -0.13774E+00  0.69364E-01  0.00000E+00 -0.14582E+00  0.68789E-01  0.00000E+00 -0.15387E+00
          0.68204E-01  0.00000E+00 -0.16202E+00  0.67616E-01  0.00000E+00 -0.17017E+00  0.67024E-01  0.00000E+00 -0.17834E+00  0.66438E-01  0.00000E+00 -0.18682E+00  0.65821E-01  0.00000E+00 -0.19491E+00  0.65224E-01  0.00000E+00 -0.20371E+00
          0.64566E-01  0.00000E+00 -0.21225E+00  0.63933E-01  0.00000E+00 -0.22010E+00  0.63314E-01  0.00000E+00 -0.23096E+00  0.62657E-01  0.00000E+00 -0.23677E+00  0.62366E-01  0.00000E+00 -0.24683E+00  0.61762E-01  0.00000E+00 -0.26063E+00
          0.12705E+00  0.00000E+00  0.38338E-02  0.16673E+00  0.00000E+00 -0.86661E-03  0.11967E+00  0.00000E+00 -0.13682E-01  0.19078E+00  0.00000E+00 -0.26660E-01  0.14235E+00  0.00000E+00 -0.37805E-01  0.12932E+00  0.00000E+00 -0.47018E-01
          0.11186E+00  0.00000E+00 -0.58040E-01  0.10232E+00  0.00000E+00 -0.67541E-01  0.95825E-01  0.00000E+00 -0.76963E-01  0.91882E-01  0.00000E+00 -0.86176E-01  0.89249E-01  0.00000E+00 -0.94966E-01  0.87438E-01  0.00000E+00 -0.10361E+00
          0.86089E-01  0.00000E+00 -0.11211E+00  0.85025E-01  0.00000E+00 -0.12046E+00  0.84127E-01  0.00000E+00 -0.12873E+00  0.83335E-01  0.00000E+00 -0.13694E+00  0.82606E-01  0.00000E+00 -0.14512E+00  0.81919E-01  0.00000E+00 -0.15326E+00
          0.81261E-01  0.00000E+00 -0.16147E+00  0.80630E-01  0.00000E+00 -0.16968E+00  0.80017E-01  0.00000E+00 -0.17792E+00  0.79428E-01  0.00000E+00 -0.18646E+00  0.78826E-01  0.00000E+00 -0.19460E+00  0.78257E-01  0.00000E+00 -0.20348E+00
          0.77637E-01  0.00000E+00 -0.21208E+00  0.77076E-01  0.00000E+00 -0.22000E+00  0.76466E-01  0.00000E+00 -0.23099E+00  0.75937E-01  0.00000E+00 -0.23682E+00  0.75462E-01  0.00000E+00 -0.24703E+00  0.74856E-01  0.00000E+00 -0.26078E+00
          0.12027E+00  0.00000E+00  0.17545E-02  0.17957E+00  0.00000E+00 -0.72082E-02  0.15838E+00  0.00000E+00 -0.12261E-01  0.20640E+00  0.00000E+00 -0.26235E-01  0.16939E+00  0.00000E+00 -0.38569E-01  0.14710E+00  0.00000E+00 -0.47005E-01
          0.13179E+00  0.00000E+00 -0.57050E-01  0.12040E+00  0.00000E+00 -0.66985E-01  0.11310E+00  0.00000E+00 -0.76183E-01  0.10827E+00  0.00000E+00 -0.85453E-01  0.10490E+00  0.00000E+00 -0.94370E-01  0.10248E+00  0.00000E+00 -0.10306E+00
          0.10063E+00  0.00000E+00 -0.11163E+00  0.99152E-01  0.00000E+00 -0.12004E+00  0.97929E-01  0.00000E+00 -0.12836E+00  0.96873E-01  0.00000E+00 -0.13663E+00  0.95933E-01  0.00000E+00 -0.14486E+00  0.95092E-01  0.00000E+00 -0.15306E+00
          0.94336E-01  0.00000E+00 -0.16132E+00  0.93656E-01  0.00000E+00 -0.16958E+00  0.93031E-01  0.00000E+00 -0.17788E+00  0.92452E-01  0.00000E+00 -0.18647E+00  0.91883E-01  0.00000E+00 -0.19466E+00  0.91355E-01  0.00000E+00 -0.20363E+00
          0.90783E-01  0.00000E+00 -0.21226E+00  0.90285E-01  0.00000E+00 -0.22026E+00  0.89710E-01  0.00000E+00 -0.23135E+00  0.89231E-01  0.00000E+00 -0.23711E+00  0.88843E-01  0.00000E+00 -0.24745E+00  0.88131E-01  0.00000E+00 -0.26133E+00
          0.12818E+00  0.00000E+00 -0.44370E-03  0.17388E+00  0.00000E+00 -0.92609E-02  0.21002E+00  0.00000E+00 -0.15347E-01  0.21773E+00  0.00000E+00 -0.26819E-01  0.19618E+00  0.00000E+00 -0.38428E-01  0.16563E+00  0.00000E+00 -0.47885E-01
          0.15154E+00  0.00000E+00 -0.56906E-01  0.13874E+00  0.00000E+00 -0.67276E-01  0.13057E+00  0.00000E+00 -0.76227E-01  0.12484E+00  0.00000E+00 -0.85409E-01  0.12073E+00  0.00000E+00 -0.94364E-01  0.11771E+00  0.00000E+00 -0.10299E+00
          0.11537E+00  0.00000E+00 -0.11157E+00  0.11349E+00  0.00000E+00 -0.12001E+00  0.11195E+00  0.00000E+00 -0.12835E+00  0.11065E+00  0.00000E+00 -0.13666E+00  0.10952E+00  0.00000E+00 -0.14495E+00  0.10854E+00  0.00000E+00 -0.15321E+00
          0.10769E+00  0.00000E+00 -0.16155E+00  0.10696E+00  0.00000E+00 -0.16988E+00  0.10632E+00  0.00000E+00 -0.17825E+00  0.10574E+00  0.00000E+00 -0.18690E+00  0.10519E+00  0.00000E+00 -0.19514E+00  0.10470E+00  0.00000E+00 -0.20419E+00
          0.10417E+00  0.00000E+00 -0.21285E+00  0.10374E+00  0.00000E+00 -0.22090E+00  0.10319E+00  0.00000E+00 -0.23209E+00  0.10278E+00  0.00000E+00 -0.23784E+00  0.10230E+00  0.00000E+00 -0.24830E+00  0.10152E+00  0.00000E+00 -0.26216E+00
          0.14517E+00  0.00000E+00 -0.21496E-02  0.17141E+00  0.00000E+00 -0.91901E-02  0.25528E+00  0.00000E+00 -0.24560E-01  0.22834E+00  0.00000E+00 -0.29058E-01  0.22266E+00  0.00000E+00 -0.39590E-01  0.18484E+00  0.00000E+00 -0.51006E-01
          0.17127E+00  0.00000E+00 -0.58016E-01  0.15722E+00  0.00000E+00 -0.68607E-01  0.14812E+00  0.00000E+00 -0.77291E-01  0.14155E+00  0.00000E+00 -0.86152E-01  0.13672E+00  0.00000E+00 -0.95062E-01  0.13310E+00  0.00000E+00 -0.10356E+00
          0.13027E+00  0.00000E+00 -0.11208E+00  0.12799E+00  0.00000E+00 -0.12048E+00  0.12613E+00  0.00000E+00 -0.12880E+00  0.12457E+00  0.00000E+00 -0.13711E+00  0.12325E+00  0.00000E+00 -0.14541E+00  0.12213E+00  0.00000E+00 -0.15370E+00
          0.12118E+00  0.00000E+00 -0.16208E+00  0.12038E+00  0.00000E+00 -0.17045E+00  0.11970E+00  0.00000E+00 -0.17888E+00  0.11912E+00  0.00000E+00 -0.18758E+00  0.11859E+00  0.00000E+00 -0.19586E+00  0.11813E+00  0.00000E+00 -0.20498E+00
          0.11764E+00  0.00000E+00 -0.21365E+00  0.11727E+00  0.00000E+00 -0.22177E+00  0.11673E+00  0.00000E+00 -0.23302E+00  0.11637E+00  0.00000E+00 -0.23871E+00  0.11590E+00  0.00000E+00 -0.24928E+00  0.11503E+00  0.00000E+00 -0.26321E+00
          0.16320E+00  0.00000E+00 -0.36679E-02  0.18242E+00  0.00000E+00 -0.92144E-02  0.28558E+00  0.00000E+00 -0.32903E-01  0.24149E+00  0.00000E+00 -0.32887E-01  0.24732E+00  0.00000E+00 -0.41437E-01  0.20343E+00  0.00000E+00 -0.55156E-01
          0.19051E+00  0.00000E+00 -0.59716E-01  0.17529E+00  0.00000E+00 -0.70435E-01  0.16537E+00  0.00000E+00 -0.78821E-01  0.15809E+00  0.00000E+00 -0.87211E-01  0.15261E+00  0.00000E+00 -0.96027E-01  0.14845E+00  0.00000E+00 -0.10435E+00
          0.14519E+00  0.00000E+00 -0.11276E+00  0.14256E+00  0.00000E+00 -0.12112E+00  0.14040E+00  0.00000E+00 -0.12940E+00  0.13863E+00  0.00000E+00 -0.13770E+00  0.13715E+00  0.00000E+00 -0.14601E+00  0.13591E+00  0.00000E+00 -0.15433E+00
          0.13488E+00  0.00000E+00 -0.16277E+00  0.13402E+00  0.00000E+00 -0.17118E+00  0.13331E+00  0.00000E+00 -0.17968E+00  0.13271E+00  0.00000E+00 -0.18845E+00  0.13219E+00  0.00000E+00 -0.19677E+00  0.13177E+00  0.00000E+00 -0.20598E+00
          0.13131E+00  0.00000E+00 -0.21467E+00  0.13098E+00  0.00000E+00 -0.22284E+00  0.13046E+00  0.00000E+00 -0.23418E+00  0.13014E+00  0.00000E+00 -0.23982E+00  0.12962E+00  0.00000E+00 -0.25052E+00  0.12866E+00  0.00000E+00 -0.26446E+00
          0.18283E+00  0.00000E+00 -0.58646E-02  0.20650E+00  0.00000E+00 -0.10802E-01  0.30545E+00  0.00000E+00 -0.36928E-01  0.25804E+00  0.00000E+00 -0.36776E-01  0.27028E+00  0.00000E+00 -0.42851E-01  0.22152E+00  0.00000E+00 -0.58868E-01
          0.20930E+00  0.00000E+00 -0.61561E-01  0.19288E+00  0.00000E+00 -0.72371E-01  0.18231E+00  0.00000E+00 -0.80500E-01  0.17446E+00  0.00000E+00 -0.88457E-01  0.16843E+00  0.00000E+00 -0.97165E-01  0.16382E+00  0.00000E+00 -0.10533E+00
          0.16018E+00  0.00000E+00 -0.11363E+00  0.15723E+00  0.00000E+00 -0.12194E+00  0.15482E+00  0.00000E+00 -0.13018E+00  0.15284E+00  0.00000E+00 -0.13848E+00  0.15121E+00  0.00000E+00 -0.14680E+00  0.14986E+00  0.00000E+00 -0.15514E+00
          0.14874E+00  0.00000E+00 -0.16361E+00  0.14783E+00  0.00000E+00 -0.17207E+00  0.14707E+00  0.00000E+00 -0.18062E+00  0.14646E+00  0.00000E+00 -0.18944E+00  0.14593E+00  0.00000E+00 -0.19781E+00  0.14552E+00  0.00000E+00 -0.20711E+00
          0.14508E+00  0.00000E+00 -0.21581E+00  0.14480E+00  0.00000E+00 -0.22404E+00  0.14427E+00  0.00000E+00 -0.23547E+00  0.14400E+00  0.00000E+00 -0.24103E+00  0.14346E+00  0.00000E+00 -0.25186E+00  0.14242E+00  0.00000E+00 -0.26585E+00
          0.20684E+00  0.00000E+00 -0.71099E-02  0.23741E+00  0.00000E+00 -0.13130E-01  0.32211E+00  0.00000E+00 -0.37573E-01  0.27658E+00  0.00000E+00 -0.39758E-01  0.29209E+00  0.00000E+00 -0.43624E-01  0.23947E+00  0.00000E+00 -0.61527E-01
          0.22774E+00  0.00000E+00 -0.63035E-01  0.21007E+00  0.00000E+00 -0.74003E-01  0.19897E+00  0.00000E+00 -0.81951E-01  0.19065E+00  0.00000E+00 -0.89629E-01  0.18413E+00  0.00000E+00 -0.98236E-01  0.17916E+00  0.00000E+00 -0.10629E+00
          0.17520E+00  0.00000E+00 -0.11448E+00  0.17199E+00  0.00000E+00 -0.12276E+00  0.16936E+00  0.00000E+00 -0.13097E+00  0.16720E+00  0.00000E+00 -0.13928E+00  0.16543E+00  0.00000E+00 -0.14762E+00  0.16399E+00  0.00000E+00 -0.15598E+00
          0.16281E+00  0.00000E+00 -0.16450E+00  0.16184E+00  0.00000E+00 -0.17300E+00  0.16106E+00  0.00000E+00 -0.18162E+00  0.16042E+00  0.00000E+00 -0.19050E+00  0.15990E+00  0.00000E+00 -0.19892E+00  0.15948E+00  0.00000E+00 -0.20833E+00
          0.15905E+00  0.00000E+00 -0.21705E+00  0.15880E+00  0.00000E+00 -0.22537E+00  0.15827E+00  0.00000E+00 -0.23689E+00  0.15803E+00  0.00000E+00 -0.24239E+00  0.15745E+00  0.00000E+00 -0.25338E+00  0.15633E+00  0.00000E+00 -0.26738E+00
          0.23583E+00  0.00000E+00 -0.73592E-02  0.27015E+00  0.00000E+00 -0.14416E-01  0.33937E+00  0.00000E+00 -0.36483E-01  0.29683E+00  0.00000E+00 -0.41236E-01  0.31338E+00  0.00000E+00 -0.43504E-01  0.25783E+00  0.00000E+00 -0.63104E-01
          0.24621E+00  0.00000E+00 -0.63860E-01  0.22718E+00  0.00000E+00 -0.75144E-01  0.21558E+00  0.00000E+00 -0.82999E-01  0.20681E+00  0.00000E+00 -0.90573E-01  0.19985E+00  0.00000E+00 -0.99128E-01  0.19456E+00  0.00000E+00 -0.10714E+00
          0.19034E+00  0.00000E+00 -0.11528E+00  0.18690E+00  0.00000E+00 -0.12356E+00  0.18409E+00  0.00000E+00 -0.13177E+00  0.18177E+00  0.00000E+00 -0.14010E+00  0.17987E+00  0.00000E+00 -0.14848E+00  0.17833E+00  0.00000E+00 -0.15688E+00
          0.17708E+00  0.00000E+00 -0.16545E+00  0.17607E+00  0.00000E+00 -0.17399E+00  0.17525E+00  0.00000E+00 -0.18268E+00  0.17459E+00  0.00000E+00 -0.19162E+00  0.17406E+00  0.00000E+00 -0.20010E+00  0.17363E+00  0.00000E+00 -0.20961E+00
          0.17320E+00  0.00000E+00 -0.21834E+00  0.17297E+00  0.00000E+00 -0.22676E+00  0.17241E+00  0.00000E+00 -0.23838E+00  0.17221E+00  0.00000E+00 -0.24381E+00  0.17159E+00  0.00000E+00 -0.25497E+00  0.17040E+00  0.00000E+00 -0.26902E+00
          0.26810E+00  0.00000E+00 -0.69902E-02  0.30231E+00  0.00000E+00 -0.14581E-01  0.35824E+00  0.00000E+00 -0.34551E-01  0.31888E+00  0.00000E+00 -0.41405E-01  0.33467E+00  0.00000E+00 -0.42565E-01  0.27687E+00  0.00000E+00 -0.63827E-01
          0.26496E+00  0.00000E+00 -0.64007E-01  0.24444E+00  0.00000E+00 -0.75772E-01  0.23231E+00  0.00000E+00 -0.83585E-01  0.22309E+00  0.00000E+00 -0.91196E-01  0.21570E+00  0.00000E+00 -0.99766E-01  0.21012E+00  0.00000E+00 -0.10779E+00
          0.20564E+00  0.00000E+00 -0.11594E+00  0.20200E+00  0.00000E+00 -0.12424E+00  0.19902E+00  0.00000E+00 -0.13248E+00  0.19656E+00  0.00000E+00 -0.14086E+00  0.19454E+00  0.00000E+00 -0.14929E+00  0.19291E+00  0.00000E+00 -0.15775E+00
          0.19159E+00  0.00000E+00 -0.16639E+00  0.19054E+00  0.00000E+00 -0.17498E+00  0.18969E+00  0.00000E+00 -0.18375E+00  0.18901E+00  0.00000E+00 -0.19276E+00  0.18846E+00  0.00000E+00 -0.20129E+00  0.18803E+00  0.00000E+00 -0.21093E+00
          0.18760E+00  0.00000E+00 -0.21967E+00  0.18737E+00  0.00000E+00 -0.22822E+00  0.18677E+00  0.00000E+00 -0.23996E+00  0.18659E+00  0.00000E+00 -0.24530E+00  0.18592E+00  0.00000E+00 -0.25667E+00  0.18466E+00  0.00000E+00 -0.27077E+00
          0.30125E+00  0.00000E+00 -0.63175E-02  0.33319E+00  0.00000E+00 -0.14058E-01  0.37847E+00  0.00000E+00 -0.32689E-01  0.34298E+00  0.00000E+00 -0.40635E-01  0.35607E+00  0.00000E+00 -0.41121E-01  0.29696E+00  0.00000E+00 -0.63895E-01
          0.28428E+00  0.00000E+00 -0.63558E-01  0.26211E+00  0.00000E+00 -0.75926E-01  0.24940E+00  0.00000E+00 -0.83742E-01  0.23967E+00  0.00000E+00 -0.91485E-01  0.23181E+00  0.00000E+00 -0.10013E+00  0.22594E+00  0.00000E+00 -0.10823E+00
          0.22121E+00  0.00000E+00 -0.11643E+00  0.21737E+00  0.00000E+00 -0.12480E+00  0.21424E+00  0.00000E+00 -0.13310E+00  0.21165E+00  0.00000E+00 -0.14154E+00  0.20952E+00  0.00000E+00 -0.15005E+00  0.20778E+00  0.00000E+00 -0.15859E+00
          0.20639E+00  0.00000E+00 -0.16732E+00  0.20528E+00  0.00000E+00 -0.17598E+00  0.20439E+00  0.00000E+00 -0.18484E+00  0.20368E+00  0.00000E+00 -0.19392E+00  0.20313E+00  0.00000E+00 -0.20252E+00  0.20267E+00  0.00000E+00 -0.21229E+00
          0.20222E+00  0.00000E+00 -0.22103E+00  0.20200E+00  0.00000E+00 -0.22971E+00  0.20134E+00  0.00000E+00 -0.24158E+00  0.20119E+00  0.00000E+00 -0.24683E+00  0.20045E+00  0.00000E+00 -0.25844E+00  0.19913E+00  0.00000E+00 -0.27258E+00
          0.33373E+00  0.00000E+00 -0.55206E-02  0.36254E+00  0.00000E+00 -0.13062E-01  0.39951E+00  0.00000E+00 -0.31197E-01  0.36926E+00  0.00000E+00 -0.39182E-01  0.37740E+00  0.00000E+00 -0.39500E-01  0.31822E+00  0.00000E+00 -0.63526E-01