<?xml version="1.0"?>
<VTKFile type="UnstructuredGrid" version="0.1" byte_order="LittleEndian" compressor="vtkZLibDataCompressor">
<UnstructuredGrid>
  <Piece NumberOfPoints="1800"        NumberOfCells="1"      >
    <Points>
      <DataArray type="Float32" NumberOfComponents="3" format="ascii" >
        0.24135E-01  0.00000E+00  0.24949E-02  0.12682E-01  0.00000E+00  0.43662E-02  0.66989E-02  0.00000E+00  0.10460E-01  0.87548E-02  0.00000E+00  0.17375E-01  0.80556E-02  0.00000E+00  0.23475E-01  0.76323E-02  0.00000E+00  0.30262E-01
        0.76855E-02  0.00000E+00  0.37245E-01  0.84538E-02  0.00000E+00  0.43700E-01  0.87339E-02  0.00000E+00  0.49854E-01  0.89258E-02  0.00000E+00  0.55652E-01  0.88730E-02  0.00000E+00  0.61383E-01  0.87949E-02  0.00000E+00  0.67110E-01
        0.86160E-02  0.00000E+00  0.72899E-01  0.84542E-02  0.00000E+00  0.78727E-01  0.82859E-02  0.00000E+00  0.84637E-01  0.81106E-02  0.00000E+00  0.90622E-01  0.79406E-02  0.00000E+00  0.96690E-01  0.77774E-02  0.00000E+00  0.10284E+00
        0.76239E-02  0.00000E+00  0.10908E+00  0.74799E-02  0.00000E+00  0.11540E+00  0.73456E-02  0.00000E+00  0.12180E+00  0.72276E-02  0.00000E+00  0.12830E+00  0.71138E-02  0.00000E+00  0.13487E+00  0.69994E-02  0.00000E+00  0.14152E+00
        0.69413E-02  0.00000E+00  0.14829E+00  0.68149E-02  0.00000E+00  0.15507E+00  0.66460E-02  0.00000E+00  0.16189E+00  0.70720E-02  0.00000E+00  0.16918E+00  0.63095E-02  0.00000E+00  0.17609E+00  0.61894E-02  0.00000E+00  0.18158E+00
        0.36542E-01  0.00000E+00  0.38272E-02  0.21893E-01  0.00000E+00  0.11276E-01  0.33216E-01  0.00000E+00  0.12951E-01  0.28258E-01  0.00000E+00  0.20440E-01  0.18989E-01  0.00000E+00  0.21735E-01  0.28099E-01  0.00000E+00  0.29651E-01
        0.19064E-01  0.00000E+00  0.33684E-01  0.27917E-01  0.00000E+00  0.39336E-01  0.20467E-01  0.00000E+00  0.45171E-01  0.27300E-01  0.00000E+00  0.50883E-01  0.23178E-01  0.00000E+00  0.57175E-01  0.24929E-01  0.00000E+00  0.63586E-01
        0.24034E-01  0.00000E+00  0.69979E-01  0.24002E-01  0.00000E+00  0.76465E-01  0.23647E-01  0.00000E+00  0.82936E-01  0.23392E-01  0.00000E+00  0.89423E-01  0.23104E-01  0.00000E+00  0.95919E-01  0.22831E-01  0.00000E+00  0.10243E+00
        0.22558E-01  0.00000E+00  0.10896E+00  0.22298E-01  0.00000E+00  0.11552E+00  0.22043E-01  0.00000E+00  0.12209E+00  0.21793E-01  0.00000E+00  0.12873E+00  0.21559E-01  0.00000E+00  0.13540E+00  0.21316E-01  0.00000E+00  0.14202E+00
        0.21074E-01  0.00000E+00  0.14889E+00  0.20949E-01  0.00000E+00  0.15572E+00  0.20481E-01  0.00000E+00  0.16209E+00  0.20766E-01  0.00000E+00  0.16991E+00  0.20059E-01  0.00000E+00  0.17650E+00  0.20195E-01  0.00000E+00  0.18181E+00
        0.53066E-01  0.00000E+00  0.35008E-02  0.44250E-01  0.00000E+00  0.10261E-01  0.56244E-01  0.00000E+00  0.13271E-01  0.48139E-01  0.00000E+00  0.19237E-01  0.39041E-01  0.00000E+00  0.23168E-01  0.48206E-01  0.00000E+00  0.28848E-01
        0.38012E-01  0.00000E+00  0.33363E-01  0.46520E-01  0.00000E+00  0.39376E-01  0.37117E-01  0.00000E+00  0.44376E-01  0.44125E-01  0.00000E+00  0.50515E-01  0.38186E-01  0.00000E+00  0.56365E-01  0.40535E-01  0.00000E+00  0.63070E-01
        0.39100E-01  0.00000E+00  0.69533E-01  0.39100E-01  0.00000E+00  0.76179E-01  0.38739E-01  0.00000E+00  0.82843E-01  0.38478E-01  0.00000E+00  0.89486E-01  0.38163E-01  0.00000E+00  0.96146E-01  0.37872E-01  0.00000E+00  0.10281E+00
        0.37563E-01  0.00000E+00  0.10948E+00  0.37258E-01  0.00000E+00  0.11617E+00  0.36946E-01  0.00000E+00  0.12285E+00  0.36633E-01  0.00000E+00  0.12958E+00  0.36309E-01  0.00000E+00  0.13633E+00  0.36006E-01  0.00000E+00  0.14299E+00
        0.35673E-01  0.00000E+00  0.14992E+00  0.35386E-01  0.00000E+00  0.15676E+00  0.35081E-01  0.00000E+00  0.16307E+00  0.34897E-01  0.00000E+00  0.17093E+00  0.34423E-01  0.00000E+00  0.17727E+00  0.34363E-01  0.00000E+00  0.18256E+00
        0.77018E-01  0.00000E+00  0.32280E-02  0.64685E-01  0.00000E+00  0.73520E-02  0.71713E-01  0.00000E+00  0.13383E-01  0.70246E-01  0.00000E+00  0.21963E-01  0.59292E-01  0.00000E+00  0.22385E-01  0.66749E-01  0.00000E+00  0.30113E-01
        0.56828E-01  0.00000E+00  0.33217E-01  0.64524E-01  0.00000E+00  0.40508E-01  0.54910E-01  0.00000E+00  0.44494E-01  0.60022E-01  0.00000E+00  0.51545E-01  0.53999E-01  0.00000E+00  0.57051E-01  0.55664E-01  0.00000E+00  0.63861E-01
        0.54227E-01  0.00000E+00  0.70297E-01  0.54191E-01  0.00000E+00  0.76929E-01  0.53748E-01  0.00000E+00  0.83553E-01  0.53471E-01  0.00000E+00  0.90186E-01  0.53136E-01  0.00000E+00  0.96846E-01  0.52823E-01  0.00000E+00  0.10351E+00
        0.52491E-01  0.00000E+00  0.11019E+00  0.52164E-01  0.00000E+00  0.11689E+00  0.51823E-01  0.00000E+00  0.12356E+00  0.51490E-01  0.00000E+00  0.13030E+00  0.51135E-01  0.00000E+00  0.13704E+00  0.50804E-01  0.00000E+00  0.14367E+00
        0.50457E-01  0.00000E+00  0.15056E+00  0.50121E-01  0.00000E+00  0.15733E+00  0.49873E-01  0.00000E+00  0.16357E+00  0.49511E-01  0.00000E+00  0.17140E+00  0.49497E-01  0.00000E+00  0.17754E+00  0.49243E-01  0.00000E+00  0.18271E+00
        0.97043E-01  0.00000E+00  0.36636E-02  0.87608E-01  0.00000E+00  0.82808E-02  0.82216E-01  0.00000E+00  0.15579E-01  0.90783E-01  0.00000E+00  0.21867E-01  0.80659E-01  0.00000E+00  0.25415E-01  0.88377E-01  0.00000E+00  0.32029E-01
        0.76333E-01  0.00000E+00  0.34116E-01  0.81820E-01  0.00000E+00  0.41545E-01  0.72466E-01  0.00000E+00  0.45408E-01  0.75162E-01  0.00000E+00  0.52841E-01  0.70001E-01  0.00000E+00  0.58387E-01  0.70817E-01  0.00000E+00  0.65154E-01
        0.69557E-01  0.00000E+00  0.71524E-01  0.69394E-01  0.00000E+00  0.78047E-01  0.68949E-01  0.00000E+00  0.84575E-01  0.68629E-01  0.00000E+00  0.91110E-01  0.68263E-01  0.00000E+00  0.97671E-01  0.67916E-01  0.00000E+00  0.10424E+00
        0.67555E-01  0.00000E+00  0.11084E+00  0.67201E-01  0.00000E+00  0.11746E+00  0.66833E-01  0.00000E+00  0.12406E+00  0.66473E-01  0.00000E+00  0.13073E+00  0.66101E-01  0.00000E+00  0.13740E+00  0.65740E-01  0.00000E+00  0.14396E+00
        0.65375E-01  0.00000E+00  0.15081E+00  0.65038E-01  0.00000E+00  0.15750E+00  0.64702E-01  0.00000E+00  0.16368E+00  0.64430E-01  0.00000E+00  0.17147E+00  0.64131E-01  0.00000E+00  0.17751E+00  0.64048E-01  0.00000E+00  0.18270E+00
        0.11265E+00  0.00000E+00  0.39143E-02  0.10601E+00  0.00000E+00  0.10484E-01  0.97808E-01  0.00000E+00  0.15065E-01  0.11128E+00  0.00000E+00  0.20432E-01  0.10187E+00  0.00000E+00  0.24123E-01  0.10855E+00  0.00000E+00  0.31149E-01
        0.98122E-01  0.00000E+00  0.33188E-01  0.97587E-01  0.00000E+00  0.41764E-01  0.89856E-01  0.00000E+00  0.45974E-01  0.89593E-01  0.00000E+00  0.53598E-01  0.86254E-01  0.00000E+00  0.59591E-01  0.85952E-01  0.00000E+00  0.66121E-01
        0.85179E-01  0.00000E+00  0.72531E-01  0.84840E-01  0.00000E+00  0.78961E-01  0.84393E-01  0.00000E+00  0.85396E-01  0.84018E-01  0.00000E+00  0.91855E-01  0.83608E-01  0.00000E+00  0.98336E-01  0.83214E-01  0.00000E+00  0.10483E+00
        0.82806E-01  0.00000E+00  0.11135E+00  0.82408E-01  0.00000E+00  0.11789E+00  0.81993E-01  0.00000E+00  0.12443E+00  0.81599E-01  0.00000E+00  0.13104E+00  0.81190E-01  0.00000E+00  0.13764E+00  0.80790E-01  0.00000E+00  0.14414E+00
        0.80416E-01  0.00000E+00  0.15095E+00  0.80040E-01  0.00000E+00  0.15757E+00  0.79712E-01  0.00000E+00  0.16369E+00  0.79438E-01  0.00000E+00  0.17148E+00  0.79287E-01  0.00000E+00  0.17738E+00  0.79105E-01  0.00000E+00  0.18248E+00
        0.12518E+00  0.00000E+00  0.39030E-02  0.13199E+00  0.00000E+00  0.10921E-01  0.11879E+00  0.00000E+00  0.12942E-01  0.13147E+00  0.00000E+00  0.19897E-01  0.12134E+00  0.00000E+00  0.21845E-01  0.12449E+00  0.00000E+00  0.29872E-01
        0.11734E+00  0.00000E+00  0.34903E-01  0.11269E+00  0.00000E+00  0.41914E-01  0.10655E+00  0.00000E+00  0.46851E-01  0.10412E+00  0.00000E+00  0.53818E-01  0.10251E+00  0.00000E+00  0.60203E-01  0.10134E+00  0.00000E+00  0.66478E-01
        0.10100E+00  0.00000E+00  0.72910E-01  0.10048E+00  0.00000E+00  0.79278E-01  0.10004E+00  0.00000E+00  0.85666E-01  0.99611E-01  0.00000E+00  0.92087E-01  0.99156E-01  0.00000E+00  0.98519E-01  0.98710E-01  0.00000E+00  0.10496E+00
        0.98254E-01  0.00000E+00  0.11145E+00  0.97810E-01  0.00000E+00  0.11794E+00  0.97350E-01  0.00000E+00  0.12443E+00  0.96914E-01  0.00000E+00  0.13100E+00  0.96471E-01  0.00000E+00  0.13754E+00  0.96039E-01  0.00000E+00  0.14400E+00
        0.95636E-01  0.00000E+00  0.15077E+00  0.95250E-01  0.00000E+00  0.15732E+00  0.94880E-01  0.00000E+00  0.16340E+00  0.94614E-01  0.00000E+00  0.17117E+00  0.94308E-01  0.00000E+00  0.17701E+00  0.94153E-01  0.00000E+00  0.18211E+00
        0.13966E+00  0.00000E+00  0.37042E-02  0.14813E+00  0.00000E+00  0.10662E-01  0.14201E+00  0.00000E+00  0.16915E-01  0.15630E+00  0.00000E+00  0.19228E-01  0.14690E+00  0.00000E+00  0.25258E-01  0.13761E+00  0.00000E+00  0.27713E-01
        0.13499E+00  0.00000E+00  0.36019E-01  0.12836E+00  0.00000E+00  0.41294E-01  0.12440E+00  0.00000E+00  0.47807E-01  0.11964E+00  0.00000E+00  0.53325E-01  0.11841E+00  0.00000E+00  0.59849E-01  0.11721E+00  0.00000E+00  0.66070E-01
        0.11684E+00  0.00000E+00  0.72490E-01  0.11626E+00  0.00000E+00  0.78891E-01  0.11579E+00  0.00000E+00  0.85283E-01  0.11531E+00  0.00000E+00  0.91712E-01  0.11480E+00  0.00000E+00  0.98149E-01  0.11430E+00  0.00000E+00  0.10460E+00
        0.11379E+00  0.00000E+00  0.11108E+00  0.11330E+00  0.00000E+00  0.11756E+00  0.11279E+00  0.00000E+00  0.12404E+00  0.11231E+00  0.00000E+00  0.13061E+00  0.11183E+00  0.00000E+00  0.13713E+00  0.11135E+00  0.00000E+00  0.14358E+00
        0.11093E+00  0.00000E+00  0.15034E+00  0.11050E+00  0.00000E+00  0.15686E+00  0.11010E+00  0.00000E+00  0.16293E+00  0.10983E+00  0.00000E+00  0.17071E+00  0.10954E+00  0.00000E+00  0.17649E+00  0.10933E+00  0.00000E+00  0.18155E+00
[...]
<PointData>
      <DataArray type="Float32" Name="Velocity vectors"  NumberOfComponents="3"  format="ascii" >
          0.10615E+00  0.00000E+00  0.37390E-03  0.91591E-01  0.00000E+00 -0.17627E-01  0.14333E-02  0.00000E+00 -0.62478E-01  0.55267E-02  0.00000E+00 -0.49867E-01 -0.18685E-02  0.00000E+00 -0.57441E-01  0.56693E-03  0.00000E+00 -0.56375E-01
         -0.15064E-02  0.00000E+00 -0.54037E-01  0.10539E-02  0.00000E+00 -0.51633E-01  0.16536E-02  0.00000E+00 -0.48038E-01  0.74546E-02  0.00000E+00 -0.46333E-01  0.11579E-01  0.00000E+00 -0.48419E-01  0.15453E-01  0.00000E+00 -0.54760E-01
          0.16369E-01  0.00000E+00 -0.62949E-01  0.17523E-01  0.00000E+00 -0.71324E-01  0.17626E-01  0.00000E+00 -0.80386E-01  0.17377E-01  0.00000E+00 -0.90215E-01  0.16739E-01  0.00000E+00 -0.10025E+00  0.15839E-01  0.00000E+00 -0.11058E+00
          0.14778E-01  0.00000E+00 -0.12103E+00  0.13535E-01  0.00000E+00 -0.13142E+00  0.12286E-01  0.00000E+00 -0.14158E+00  0.11104E-01  0.00000E+00 -0.15150E+00  0.98246E-02  0.00000E+00 -0.16131E+00  0.88746E-02  0.00000E+00 -0.17044E+00
          0.82228E-02  0.00000E+00 -0.17910E+00  0.64781E-02  0.00000E+00 -0.18851E+00  0.66107E-02  0.00000E+00 -0.19616E+00  0.85899E-02  0.00000E+00 -0.20192E+00  0.28251E-02  0.00000E+00 -0.21203E+00  0.54333E-02  0.00000E+00 -0.22368E+00
          0.10132E+00  0.00000E+00  0.45323E-03  0.38297E-01  0.00000E+00  0.22196E-02  0.70569E-01  0.00000E+00 -0.85885E-02  0.24588E-01  0.00000E+00 -0.26110E-01  0.85610E-02  0.00000E+00 -0.35419E-01  0.21341E-01  0.00000E+00 -0.33750E-01
          0.14393E-02  0.00000E+00 -0.54140E-01  0.22058E-01  0.00000E+00 -0.53604E-01 -0.15689E-01  0.00000E+00 -0.67138E-01  0.52533E-01  0.00000E+00 -0.84985E-01 -0.15387E-01  0.00000E+00 -0.91012E-01  0.47878E-01  0.00000E+00 -0.98588E-01
          0.27353E-01  0.00000E+00 -0.10722E+00  0.37677E-01  0.00000E+00 -0.11053E+00  0.34765E-01  0.00000E+00 -0.11584E+00  0.35913E-01  0.00000E+00 -0.12105E+00  0.35149E-01  0.00000E+00 -0.12612E+00  0.34469E-01  0.00000E+00 -0.13153E+00
          0.33367E-01  0.00000E+00 -0.13725E+00  0.32123E-01  0.00000E+00 -0.14341E+00  0.30742E-01  0.00000E+00 -0.15006E+00  0.29394E-01  0.00000E+00 -0.15638E+00  0.27915E-01  0.00000E+00 -0.16403E+00  0.26366E-01  0.00000E+00 -0.17211E+00
          0.24934E-01  0.00000E+00 -0.17767E+00  0.23863E-01  0.00000E+00 -0.18732E+00  0.20812E-01  0.00000E+00 -0.19705E+00  0.22658E-01  0.00000E+00 -0.19779E+00  0.17612E-01  0.00000E+00 -0.21206E+00  0.19504E-01  0.00000E+00 -0.22182E+00
          0.95346E-01  0.00000E+00  0.10214E-03  0.87438E-01  0.00000E+00  0.36108E-02  0.11061E+00  0.00000E+00 -0.83391E-02  0.77102E-01  0.00000E+00 -0.17578E-01  0.43263E-01  0.00000E+00 -0.32376E-01  0.57494E-01  0.00000E+00 -0.35880E-01
          0.38631E-01  0.00000E+00 -0.53739E-01  0.55443E-01  0.00000E+00 -0.59804E-01  0.28478E-01  0.00000E+00 -0.70721E-01  0.90405E-01  0.00000E+00 -0.79695E-01  0.85774E-02  0.00000E+00 -0.99259E-01  0.74495E-01  0.00000E+00 -0.10724E+00
          0.37565E-01  0.00000E+00 -0.11817E+00  0.50568E-01  0.00000E+00 -0.12232E+00  0.47414E-01  0.00000E+00 -0.12724E+00  0.48361E-01  0.00000E+00 -0.13233E+00  0.47696E-01  0.00000E+00 -0.13689E+00  0.47626E-01  0.00000E+00 -0.14182E+00
          0.47092E-01  0.00000E+00 -0.14675E+00  0.46600E-01  0.00000E+00 -0.15206E+00  0.45877E-01  0.00000E+00 -0.15786E+00  0.45046E-01  0.00000E+00 -0.16303E+00  0.43927E-01  0.00000E+00 -0.16967E+00  0.42921E-01  0.00000E+00 -0.17664E+00
          0.41333E-01  0.00000E+00 -0.18105E+00  0.40020E-01  0.00000E+00 -0.19022E+00  0.38627E-01  0.00000E+00 -0.19826E+00  0.37691E-01  0.00000E+00 -0.19937E+00  0.33992E-01  0.00000E+00 -0.21469E+00  0.34792E-01  0.00000E+00 -0.22297E+00
          0.13285E+00  0.00000E+00 -0.42339E-03  0.10442E+00  0.00000E+00 -0.92762E-02  0.12656E+00  0.00000E+00 -0.20098E-01  0.10362E+00  0.00000E+00 -0.20172E-01  0.95365E-01  0.00000E+00 -0.24078E-01  0.92670E-01  0.00000E+00 -0.29678E-01
          0.72752E-01  0.00000E+00 -0.46311E-01  0.97264E-01  0.00000E+00 -0.49434E-01  0.66064E-01  0.00000E+00 -0.70969E-01  0.13442E+00  0.00000E+00 -0.75687E-01  0.39300E-01  0.00000E+00 -0.10560E+00  0.94569E-01  0.00000E+00 -0.10378E+00
          0.54989E-01  0.00000E+00 -0.11632E+00  0.65695E-01  0.00000E+00 -0.12099E+00  0.59863E-01  0.00000E+00 -0.12628E+00  0.61073E-01  0.00000E+00 -0.13177E+00  0.60247E-01  0.00000E+00 -0.13687E+00  0.60202E-01  0.00000E+00 -0.14219E+00
          0.59775E-01  0.00000E+00 -0.14745E+00  0.59496E-01  0.00000E+00 -0.15297E+00  0.58950E-01  0.00000E+00 -0.15878E+00  0.58525E-01  0.00000E+00 -0.16386E+00  0.57681E-01  0.00000E+00 -0.17047E+00  0.57019E-01  0.00000E+00 -0.17707E+00
          0.56040E-01  0.00000E+00 -0.18124E+00  0.55028E-01  0.00000E+00 -0.19062E+00  0.54551E-01  0.00000E+00 -0.19803E+00  0.53208E-01  0.00000E+00 -0.19874E+00  0.54281E-01  0.00000E+00 -0.21416E+00  0.53533E-01  0.00000E+00 -0.22284E+00
          0.17809E+00  0.00000E+00 -0.97214E-03  0.14955E+00  0.00000E+00 -0.11654E-01  0.12387E+00  0.00000E+00 -0.16652E-01  0.13623E+00  0.00000E+00 -0.22303E-01  0.11982E+00  0.00000E+00 -0.31564E-01  0.13906E+00  0.00000E+00 -0.45187E-01
          0.11072E+00  0.00000E+00 -0.48118E-01  0.14213E+00  0.00000E+00 -0.58621E-01  0.11009E+00  0.00000E+00 -0.75442E-01  0.16635E+00  0.00000E+00 -0.72961E-01  0.68607E-01  0.00000E+00 -0.10357E+00  0.10419E+00  0.00000E+00 -0.96524E-01
          0.70654E-01  0.00000E+00 -0.10850E+00  0.78337E-01  0.00000E+00 -0.11216E+00  0.73669E-01  0.00000E+00 -0.11763E+00  0.74577E-01  0.00000E+00 -0.12376E+00  0.73893E-01  0.00000E+00 -0.12938E+00  0.74022E-01  0.00000E+00 -0.13542E+00
          0.73848E-01  0.00000E+00 -0.14144E+00  0.73850E-01  0.00000E+00 -0.14784E+00  0.73627E-01  0.00000E+00 -0.15451E+00  0.73558E-01  0.00000E+00 -0.16040E+00  0.73225E-01  0.00000E+00 -0.16797E+00  0.72941E-01  0.00000E+00 -0.17530E+00
          0.72583E-01  0.00000E+00 -0.18011E+00  0.72222E-01  0.00000E+00 -0.19037E+00  0.71592E-01  0.00000E+00 -0.19790E+00  0.71432E-01  0.00000E+00 -0.19936E+00  0.69879E-01  0.00000E+00 -0.21537E+00  0.70648E-01  0.00000E+00 -0.22329E+00
          0.19283E+00  0.00000E+00 -0.39088E-02  0.18922E+00  0.00000E+00 -0.65404E-02  0.13909E+00  0.00000E+00 -0.33497E-01  0.17981E+00  0.00000E+00 -0.30327E-01  0.16313E+00  0.00000E+00 -0.48910E-01  0.19352E+00  0.00000E+00 -0.55951E-01
          0.16723E+00  0.00000E+00 -0.80177E-01  0.17586E+00  0.00000E+00 -0.73977E-01  0.14682E+00  0.00000E+00 -0.95293E-01  0.16454E+00  0.00000E+00 -0.81974E-01  0.96035E-01  0.00000E+00 -0.95711E-01  0.10487E+00  0.00000E+00 -0.89789E-01
          0.89987E-01  0.00000E+00 -0.99174E-01  0.91955E-01  0.00000E+00 -0.10339E+00  0.89799E-01  0.00000E+00 -0.10917E+00  0.90605E-01  0.00000E+00 -0.11580E+00  0.90367E-01  0.00000E+00 -0.12187E+00  0.90764E-01  0.00000E+00 -0.12850E+00
          0.90793E-01  0.00000E+00 -0.13506E+00  0.91077E-01  0.00000E+00 -0.14211E+00  0.90966E-01  0.00000E+00 -0.14933E+00  0.91180E-01  0.00000E+00 -0.15574E+00  0.90965E-01  0.00000E+00 -0.16407E+00  0.90711E-01  0.00000E+00 -0.17176E+00
          0.90707E-01  0.00000E+00 -0.17687E+00  0.90144E-01  0.00000E+00 -0.18797E+00  0.89848E-01  0.00000E+00 -0.19546E+00  0.90012E-01  0.00000E+00 -0.19664E+00  0.90128E-01  0.00000E+00 -0.21365E+00  0.90280E-01  0.00000E+00 -0.22217E+00
          0.22620E+00  0.00000E+00 -0.73884E-02  0.23658E+00  0.00000E+00 -0.14994E-01  0.20748E+00  0.00000E+00 -0.26222E-01  0.21507E+00  0.00000E+00 -0.26712E-01  0.19635E+00  0.00000E+00 -0.38203E-01  0.23739E+00  0.00000E+00 -0.46650E-01
          0.20336E+00  0.00000E+00 -0.74390E-01  0.19671E+00  0.00000E+00 -0.73314E-01  0.16106E+00  0.00000E+00 -0.95060E-01  0.14178E+00  0.00000E+00 -0.85559E-01  0.12245E+00  0.00000E+00 -0.84223E-01  0.10475E+00  0.00000E+00 -0.89490E-01
          0.10983E+00  0.00000E+00 -0.94217E-01  0.10655E+00  0.00000E+00 -0.99425E-01  0.10741E+00  0.00000E+00 -0.10542E+00  0.10794E+00  0.00000E+00 -0.11185E+00  0.10815E+00  0.00000E+00 -0.11823E+00  0.10876E+00  0.00000E+00 -0.12514E+00
          0.10906E+00  0.00000E+00 -0.13192E+00  0.10960E+00  0.00000E+00 -0.13934E+00  0.10972E+00  0.00000E+00 -0.14686E+00  0.11011E+00  0.00000E+00 -0.15354E+00  0.11015E+00  0.00000E+00 -0.16232E+00  0.11004E+00  0.00000E+00 -0.17023E+00
          0.11016E+00  0.00000E+00 -0.17560E+00  0.10997E+00  0.00000E+00 -0.18721E+00  0.10948E+00  0.00000E+00 -0.19479E+00  0.10991E+00  0.00000E+00 -0.19627E+00  0.10870E+00  0.00000E+00 -0.21357E+00  0.10928E+00  0.00000E+00 -0.22184E+00
          0.26016E+00  0.00000E+00 -0.34845E-02  0.26856E+00  0.00000E+00 -0.92036E-02  0.23745E+00  0.00000E+00 -0.29932E-01  0.27277E+00  0.00000E+00 -0.29562E-01  0.26533E+00  0.00000E+00 -0.35489E-01  0.24817E+00  0.00000E+00 -0.58998E-01
          0.23762E+00  0.00000E+00 -0.50830E-01  0.20854E+00  0.00000E+00 -0.71962E-01  0.19139E+00  0.00000E+00 -0.68185E-01  0.12978E+00  0.00000E+00 -0.92716E-01  0.13476E+00  0.00000E+00 -0.86161E-01  0.11883E+00  0.00000E+00 -0.94481E-01
          0.12576E+00  0.00000E+00 -0.97726E-01  0.12296E+00  0.00000E+00 -0.10226E+00  0.12497E+00  0.00000E+00 -0.10817E+00  0.12621E+00  0.00000E+00 -0.11383E+00  0.12709E+00  0.00000E+00 -0.11998E+00  0.12813E+00  0.00000E+00 -0.12662E+00
          0.12880E+00  0.00000E+00 -0.13317E+00  0.12965E+00  0.00000E+00 -0.14046E+00  0.12992E+00  0.00000E+00 -0.14781E+00  0.13052E+00  0.00000E+00 -0.15442E+00  0.13065E+00  0.00000E+00 -0.16317E+00  0.13050E+00  0.00000E+00 -0.17089E+00
          0.13076E+00  0.00000E+00 -0.17624E+00  0.13038E+00  0.00000E+00 -0.18797E+00  0.12978E+00  0.00000E+00 -0.19518E+00  0.13021E+00  0.00000E+00 -0.19658E+00  0.12917E+00  0.00000E+00 -0.21417E+00  0.12950E+00  0.00000E+00 -0.22248E+00
          0.27646E+00  0.00000E+00 -0.28273E-02  0.29109E+00  0.00000E+00 -0.94023E-02  0.30290E+00  0.00000E+00 -0.18566E-01  0.31193E+00  0.00000E+00 -0.24517E-01  0.29763E+00  0.00000E+00 -0.40246E-01  0.27556E+00  0.00000E+00 -0.49279E-01
          0.25459E+00  0.00000E+00 -0.46595E-01  0.23820E+00  0.00000E+00 -0.83562E-01  0.22754E+00  0.00000E+00 -0.62502E-01  0.15750E+00  0.00000E+00 -0.10366E+00  0.15366E+00  0.00000E+00 -0.96051E-01  0.13453E+00  0.00000E+00 -0.10701E+00
          0.13608E+00  0.00000E+00 -0.11106E+00  0.13781E+00  0.00000E+00 -0.11345E+00  0.14004E+00  0.00000E+00 -0.11825E+00  0.14224E+00  0.00000E+00 -0.12333E+00  0.14388E+00  0.00000E+00 -0.12838E+00  0.14549E+00  0.00000E+00 -0.13408E+00
          0.14669E+00  0.00000E+00 -0.13985E+00  0.14797E+00  0.00000E+00 -0.14634E+00  0.14862E+00  0.00000E+00 -0.15291E+00  0.14956E+00  0.00000E+00 -0.15891E+00  0.14995E+00  0.00000E+00 -0.16713E+00  0.15004E+00  0.00000E+00 -0.17423E+00
          0.15050E+00  0.00000E+00 -0.17928E+00  0.15027E+00  0.00000E+00 -0.19074E+00  0.14965E+00  0.00000E+00 -0.19740E+00  0.15033E+00  0.00000E+00 -0.19892E+00  0.14877E+00  0.00000E+00 -0.21622E+00  0.14927E+00  0.00000E+00 -0.22411E+00
          0.29647E+00  0.00000E+00 -0.12848E-02  0.31924E+00  0.00000E+00 -0.14868E-01  0.33819E+00  0.00000E+00 -0.14339E-01  0.31752E+00  0.00000E+00 -0.28924E-01  0.34877E+00  0.00000E+00 -0.43335E-01  0.32821E+00  0.00000E+00 -0.44023E-01
          0.29466E+00  0.00000E+00 -0.56983E-01  0.27191E+00  0.00000E+00 -0.86123E-01  0.26046E+00  0.00000E+00 -0.66531E-01  0.20048E+00  0.00000E+00 -0.97516E-01  0.16871E+00  0.00000E+00 -0.96736E-01  0.15925E+00  0.00000E+00 -0.10179E+00
          0.14305E+00  0.00000E+00 -0.11102E+00  0.14991E+00  0.00000E+00 -0.11384E+00  0.15231E+00  0.00000E+00 -0.11865E+00  0.15570E+00  0.00000E+00 -0.12402E+00  0.15836E+00  0.00000E+00 -0.12942E+00  0.16088E+00  0.00000E+00 -0.13532E+00
          0.16282E+00  0.00000E+00 -0.14136E+00  0.16487E+00  0.00000E+00 -0.14809E+00  0.16615E+00  0.00000E+00 -0.15482E+00  0.16769E+00  0.00000E+00 -0.16099E+00  0.16867E+00  0.00000E+00 -0.16934E+00  0.16913E+00  0.00000E+00 -0.17645E+00
          0.17000E+00  0.00000E+00 -0.18158E+00  0.17010E+00  0.00000E+00 -0.19308E+00  0.16945E+00  0.00000E+00 -0.19959E+00  0.17029E+00  0.00000E+00 -0.20108E+00  0.16866E+00  0.00000E+00 -0.21829E+00  0.16914E+00  0.00000E+00 -0.22622E+00
          0.33201E+00  0.00000E+00 -0.12538E-02  0.35084E+00  0.00000E+00 -0.14491E-01  0.36502E+00  0.00000E+00 -0.18428E-01  0.34599E+00  0.00000E+00 -0.27624E-01  0.37950E+00  0.00000E+00 -0.41678E-01  0.36405E+00  0.00000E+00 -0.41234E-01
          0.33623E+00  0.00000E+00 -0.53002E-01  0.31614E+00  0.00000E+00 -0.71058E-01  0.28073E+00  0.00000E+00 -0.69680E-01  0.23508E+00  0.00000E+00 -0.94853E-01  0.19868E+00  0.00000E+00 -0.96624E-01  0.18181E+00  0.00000E+00 -0.10036E+00
          0.16140E+00  0.00000E+00 -0.11231E+00  0.16469E+00  0.00000E+00 -0.11624E+00  0.16793E+00  0.00000E+00 -0.12166E+00  0.17184E+00  0.00000E+00 -0.12799E+00  0.17546E+00  0.00000E+00 -0.13372E+00  0.17870E+00  0.00000E+00 -0.13997E+00
          0.18119E+00  0.00000E+00 -0.14638E+00  0.18363E+00  0.00000E+00 -0.15327E+00  0.18523E+00  0.00000E+00 -0.16008E+00  0.18702E+00  0.00000E+00 -0.16633E+00  0.18814E+00  0.00000E+00 -0.17453E+00  0.18874E+00  0.00000E+00 -0.18143E+00
          0.18970E+00  0.00000E+00 -0.18650E+00  0.18976E+00  0.00000E+00 -0.19765E+00  0.18910E+00  0.00000E+00 -0.20367E+00  0.19003E+00  0.00000E+00 -0.20539E+00  0.18814E+00  0.00000E+00 -0.22202E+00  0.18859E+00  0.00000E+00 -0.22937E+00
          0.36784E+00  0.00000E+00 -0.10679E-02  0.38341E+00  0.00000E+00 -0.13029E-01  0.40020E+00  0.00000E+00 -0.18546E-01  0.38131E+00  0.00000E+00 -0.27667E-01  0.41340E+00  0.00000E+00 -0.42230E-01  0.39960E+00  0.00000E+00 -0.42252E-01
          0.36776E+00  0.00000E+00 -0.56945E-01  0.35082E+00  0.00000E+00 -0.67369E-01  0.31884E+00  0.00000E+00 -0.63622E-01  0.27645E+00  0.00000E+00 -0.88637E-01  0.23326E+00  0.00000E+00 -0.10199E+00  0.20820E+00  0.00000E+00 -0.10357E+00
          0.18098E+00  0.00000E+00 -0.11621E+00  0.18207E+00  0.00000E+00 -0.12081E+00  0.18411E+00  0.00000E+00 -0.12630E+00  0.18793E+00  0.00000E+00 -0.13264E+00  0.19183E+00  0.00000E+00 -0.13841E+00  0.19541E+00  0.00000E+00 -0.14438E+00
          0.19818E+00  0.00000E+00 -0.15059E+00  0.20088E+00  0.00000E+00 -0.15726E+00  0.20266E+00  0.00000E+00 -0.16378E+00  0.20466E+00  0.00000E+00 -0.16983E+00  0.20599E+00  0.00000E+00 -0.17784E+00  0.20675E+00  0.00000E+00 -0.18445E+00
          0.20797E+00  0.00000E+00 -0.18941E+00  0.20826E+00  0.00000E+00 -0.20039E+00  0.20762E+00  0.00000E+00 -0.20612E+00  0.20890E+00  0.00000E+00 -0.20784E+00  0.20697E+00  0.00000E+00 -0.22413E+00  0.20755E+00  0.00000E+00 -0.23149E+00
          0.39990E+00  0.00000E+00 -0.11793E-02  0.41734E+00  0.00000E+00 -0.13683E-01  0.43388E+00  0.00000E+00 -0.18607E-01  0.41578E+00  0.00000E+00 -0.26086E-01  0.44622E+00  0.00000E+00 -0.40359E-01  0.43280E+00  0.00000E+00 -0.40654E-01
          0.40218E+00  0.00000E+00 -0.57237E-01  0.38439E+00  0.00000E+00 -0.66314E-01  0.35199E+00  0.00000E+00 -0.70963E-01  0.32021E+00  0.00000E+00 -0.83218E-01  0.27894E+00  0.00000E+00 -0.95198E-01  0.23390E+00  0.00000E+00 -0.10432E+00
          0.20087E+00  0.00000E+00 -0.11709E+00  0.19992E+00  0.00000E+00 -0.12274E+00  0.20087E+00  0.00000E+00 -0.12843E+00  0.20397E+00  0.00000E+00 -0.13454E+00  0.20821E+00  0.00000E+00 -0.14063E+00  0.21216E+00  0.00000E+00 -0.14664E+00
          0.21531E+00  0.00000E+00 -0.15289E+00  0.21844E+00  0.00000E+00 -0.15972E+00  0.22053E+00  0.00000E+00 -0.16632E+00  0.22284E+00  0.00000E+00 -0.17249E+00  0.22444E+00  0.00000E+00 -0.18060E+00  0.22537E+00  0.00000E+00 -0.18722E+00
          0.22677E+00  0.00000E+00 -0.19231E+00  0.22719E+00  0.00000E+00 -0.20327E+00  0.22652E+00  0.00000E+00 -0.20880E+00  0.22791E+00  0.00000E+00 -0.21075E+00  0.22585E+00  0.00000E+00 -0.22676E+00  0.22635E+00  0.00000E+00 -0.23377E+00
          0.43484E+00  0.00000E+00 -0.86532E-03  0.45234E+00  0.00000E+00 -0.13657E-01  0.46740E+00  0.00000E+00 -0.18069E-01  0.44840E+00  0.00000E+00 -0.24588E-01  0.47837E+00  0.00000E+00 -0.39480E-01  0.46465E+00  0.00000E+00 -0.39541E-01
          0.43571E+00  0.00000E+00 -0.55840E-01  0.41789E+00  0.00000E+00 -0.62508E-01  0.38582E+00  0.00000E+00 -0.70562E-01  0.35362E+00  0.00000E+00 -0.84046E-01  0.31879E+00  0.00000E+00 -0.92944E-01  0.27443E+00  0.00000E+00 -0.10249E+00
          0.23051E+00  0.00000E+00 -0.11826E+00  0.22095E+00  0.00000E+00 -0.12505E+00  0.21887E+00  0.00000E+00 -0.13284E+00  0.22099E+00  0.00000E+00 -0.13850E+00  0.22520E+00  0.00000E+00 -0.14426E+00  0.22941E+00  0.00000E+00 -0.15038E+00
          0.23278E+00  0.00000E+00 -0.15638E+00  0.23615E+00  0.00000E+00 -0.16298E+00  0.23840E+00  0.00000E+00 -0.16940E+00  0.24084E+00  0.00000E+00 -0.17539E+00  0.24253E+00  0.00000E+00 -0.18330E+00  0.24350E+00  0.00000E+00 -0.18960E+00
          0.24500E+00  0.00000E+00 -0.19459E+00  0.24546E+00  0.00000E+00 -0.20538E+00  0.24472E+00  0.00000E+00 -0.21049E+00  0.24634E+00  0.00000E+00 -0.21253E+00  0.24415E+00  0.00000E+00 -0.22819E+00  0.24471E+00  0.00000E+00 -0.23503E+00
          0.46994E+00  0.00000E+00 -0.80956E-03  0.48779E+00  0.00000E+00 -0.13959E-01  0.50091E+00  0.00000E+00 -0.18139E-01  0.48011E+00  0.00000E+00 -0.23506E-01  0.51071E+00  0.00000E+00 -0.39878E-01  0.49577E+00  0.00000E+00 -0.38965E-01
          0.46806E+00  0.00000E+00 -0.54604E-01  0.45059E+00  0.00000E+00 -0.60377E-01  0.42021E+00  0.00000E+00 -0.69403E-01  0.38866E+00  0.00000E+00 -0.82424E-01  0.35427E+00  0.00000E+00 -0.91251E-01  0.31332E+00  0.00000E+00 -0.10104E+00
          0.26799E+00  0.00000E+00 -0.11805E+00  0.24755E+00  0.00000E+00 -0.12532E+00  0.23872E+00  0.00000E+00 -0.13471E+00  0.23797E+00  0.00000E+00 -0.14140E+00  0.24157E+00  0.00000E+00 -0.14701E+00  0.24573E+00  0.00000E+00 -0.15290E+00
          0.24934E+00  0.00000E+00 -0.15879E+00  0.25303E+00  0.00000E+00 -0.16513E+00  0.25550E+00  0.00000E+00 -0.17131E+00  0.25823E+00  0.00000E+00 -0.17718E+00  0.26019E+00  0.00000E+00 -0.18496E+00  0.26130E+00  0.00000E+00 -0.19103E+00
          0.26304E+00  0.00000E+00 -0.19603E+00  0.26370E+00  0.00000E+00 -0.20678E+00  0.26290E+00  0.00000E+00 -0.21157E+00  0.26476E+00  0.00000E+00 -0.21378E+00  0.26250E+00  0.00000E+00 -0.22931E+00  0.26302E+00  0.00000E+00 -0.23594E+00
          0.50567E+00  0.00000E+00 -0.89097E-03  0.52492E+00  0.00000E+00 -0.14686E-01  0.53659E+00  0.00000E+00 -0.17086E-01  0.51187E+00  0.00000E+00 -0.22708E-01  0.54366E+00  0.00000E+00 -0.40709E-01  0.52571E+00  0.00000E+00 -0.39571E-01
          0.49911E+00  0.00000E+00 -0.54387E-01  0.48197E+00  0.00000E+00 -0.59737E-01  0.45355E+00  0.00000E+00 -0.68317E-01  0.42313E+00  0.00000E+00 -0.80737E-01  0.38955E+00  0.00000E+00 -0.88886E-01  0.35001E+00  0.00000E+00 -0.98562E-01
          0.30657E+00  0.00000E+00 -0.11571E+00  0.27951E+00  0.00000E+00 -0.12382E+00  0.26292E+00  0.00000E+00 -0.13417E+00  0.25741E+00  0.00000E+00 -0.14230E+00  0.25892E+00  0.00000E+00 -0.14858E+00  0.26248E+00  0.00000E+00 -0.15448E+00
          0.26608E+00  0.00000E+00 -0.16043E+00  0.27003E+00  0.00000E+00 -0.16671E+00  0.27272E+00  0.00000E+00 -0.17270E+00  0.27571E+00  0.00000E+00 -0.17852E+00  0.27789E+00  0.00000E+00 -0.18620E+00  0.27912E+00  0.00000E+00 -0.19199E+00
          0.28104E+00  0.00000E+00 -0.19700E+00  0.28181E+00  0.00000E+00 -0.20771E+00  0.28093E+00  0.00000E+00 -0.21203E+00  0.28305E+00  0.00000E+00 -0.21445E+00  0.28065E+00  0.00000E+00 -0.22978E+00  0.28117E+00  0.00000E+00 -0.23617E+00
          0.54017E+00  0.00000E+00 -0.99202E-03  0.56176E+00  0.00000E+00 -0.15823E-01  0.57445E+00  0.00000E+00 -0.14471E-01  0.54848E+00  0.00000E+00 -0.25824E-01  0.56848E+00  0.00000E+00 -0.34177E-01  0.55255E+00  0.00000E+00 -0.41470E-01