<?xml version="1.0"?>
<VTKFile type="UnstructuredGrid" version="0.1" byte_order="LittleEndian" compressor="vtkZLibDataCompressor">
<UnstructuredGrid>
  <Piece NumberOfPoints="1800"        NumberOfCells="1"      >
    <Points>
      <DataArray type="Float32" NumberOfComponents="3" format="ascii" >
        0.35198E-01  0.00000E+00  0.24847E-02  0.22104E-01  0.00000E+00  0.38885E-02  0.88620E-02  0.00000E+00  0.57316E-02  0.14342E-01  0.00000E+00  0.11760E-01  0.73495E-02  0.00000E+00  0.15615E-01  0.82557E-02  0.00000E+00  0.22470E-01
        0.78455E-02  0.00000E+00  0.28793E-01  0.88902E-02  0.00000E+00  0.35164E-01  0.83077E-02  0.00000E+00  0.41531E-01  0.89446E-02  0.00000E+00  0.47804E-01  0.89664E-02  0.00000E+00  0.53887E-01  0.99112E-02  0.00000E+00  0.59658E-01
        0.10096E-01  0.00000E+00  0.65086E-01  0.10465E-01  0.00000E+00  0.70300E-01  0.10422E-01  0.00000E+00  0.75393E-01  0.10417E-01  0.00000E+00  0.80491E-01  0.10247E-01  0.00000E+00  0.85593E-01  0.10085E-01  0.00000E+00  0.90734E-01
        0.98671E-02  0.00000E+00  0.95921E-01  0.96422E-02  0.00000E+00  0.10116E+00  0.94042E-02  0.00000E+00  0.10646E+00  0.91415E-02  0.00000E+00  0.11182E+00  0.88695E-02  0.00000E+00  0.11727E+00  0.86321E-02  0.00000E+00  0.12286E+00
        0.83538E-02  0.00000E+00  0.12850E+00  0.79110E-02  0.00000E+00  0.13413E+00  0.78303E-02  0.00000E+00  0.14015E+00  0.82501E-02  0.00000E+00  0.14664E+00  0.66668E-02  0.00000E+00  0.15230E+00  0.68129E-02  0.00000E+00  0.15662E+00
        0.47986E-01  0.00000E+00  0.37462E-02  0.28317E-01  0.00000E+00  0.10983E-01  0.42341E-01  0.00000E+00  0.11801E-01  0.34807E-01  0.00000E+00  0.17582E-01  0.21648E-01  0.00000E+00  0.18457E-01  0.32102E-01  0.00000E+00  0.25556E-01
        0.20598E-01  0.00000E+00  0.27301E-01  0.30401E-01  0.00000E+00  0.33732E-01  0.20491E-01  0.00000E+00  0.37304E-01  0.30355E-01  0.00000E+00  0.42903E-01  0.20925E-01  0.00000E+00  0.47652E-01  0.30426E-01  0.00000E+00  0.52618E-01
        0.22596E-01  0.00000E+00  0.58228E-01  0.30102E-01  0.00000E+00  0.63276E-01  0.25866E-01  0.00000E+00  0.69167E-01  0.28627E-01  0.00000E+00  0.74908E-01  0.27320E-01  0.00000E+00  0.80692E-01  0.27502E-01  0.00000E+00  0.86618E-01
        0.27055E-01  0.00000E+00  0.92474E-01  0.26759E-01  0.00000E+00  0.98368E-01  0.26375E-01  0.00000E+00  0.10431E+00  0.25983E-01  0.00000E+00  0.11028E+00  0.25556E-01  0.00000E+00  0.11612E+00  0.25133E-01  0.00000E+00  0.12215E+00
        0.24620E-01  0.00000E+00  0.12839E+00  0.24439E-01  0.00000E+00  0.13402E+00  0.23345E-01  0.00000E+00  0.13989E+00  0.23836E-01  0.00000E+00  0.14738E+00  0.22361E-01  0.00000E+00  0.15231E+00  0.22638E-01  0.00000E+00  0.15673E+00
        0.64743E-01  0.00000E+00  0.34601E-02  0.55502E-01  0.00000E+00  0.98542E-02  0.69803E-01  0.00000E+00  0.11898E-01  0.60170E-01  0.00000E+00  0.17364E-01  0.47481E-01  0.00000E+00  0.19835E-01  0.56423E-01  0.00000E+00  0.25318E-01
        0.43133E-01  0.00000E+00  0.28042E-01  0.52842E-01  0.00000E+00  0.33516E-01  0.41317E-01  0.00000E+00  0.37113E-01  0.51217E-01  0.00000E+00  0.42615E-01  0.40533E-01  0.00000E+00  0.46795E-01  0.50273E-01  0.00000E+00  0.52334E-01
        0.40447E-01  0.00000E+00  0.57060E-01  0.48482E-01  0.00000E+00  0.62525E-01  0.42775E-01  0.00000E+00  0.68101E-01  0.45917E-01  0.00000E+00  0.74061E-01  0.44268E-01  0.00000E+00  0.79898E-01  0.44528E-01  0.00000E+00  0.85928E-01
        0.43936E-01  0.00000E+00  0.91925E-01  0.43616E-01  0.00000E+00  0.97910E-01  0.43156E-01  0.00000E+00  0.10397E+00  0.42741E-01  0.00000E+00  0.11006E+00  0.42216E-01  0.00000E+00  0.11601E+00  0.41786E-01  0.00000E+00  0.12213E+00
        0.41174E-01  0.00000E+00  0.12846E+00  0.40721E-01  0.00000E+00  0.13419E+00  0.40143E-01  0.00000E+00  0.14020E+00  0.39793E-01  0.00000E+00  0.14759E+00  0.38814E-01  0.00000E+00  0.15232E+00  0.38811E-01  0.00000E+00  0.15693E+00
        0.93659E-01  0.00000E+00  0.33756E-02  0.78429E-01  0.00000E+00  0.62727E-02  0.86787E-01  0.00000E+00  0.11357E-01  0.84168E-01  0.00000E+00  0.19523E-01  0.72152E-01  0.00000E+00  0.20355E-01  0.79290E-01  0.00000E+00  0.27175E-01
        0.66479E-01  0.00000E+00  0.28567E-01  0.75197E-01  0.00000E+00  0.35426E-01  0.63083E-01  0.00000E+00  0.37574E-01  0.72038E-01  0.00000E+00  0.44043E-01  0.60848E-01  0.00000E+00  0.47123E-01  0.69805E-01  0.00000E+00  0.53507E-01
        0.59580E-01  0.00000E+00  0.57515E-01  0.67072E-01  0.00000E+00  0.63613E-01  0.60156E-01  0.00000E+00  0.68474E-01  0.63586E-01  0.00000E+00  0.74512E-01  0.61246E-01  0.00000E+00  0.80263E-01  0.61527E-01  0.00000E+00  0.86271E-01
        0.60824E-01  0.00000E+00  0.92260E-01  0.60470E-01  0.00000E+00  0.98256E-01  0.59896E-01  0.00000E+00  0.10431E+00  0.59478E-01  0.00000E+00  0.11039E+00  0.58858E-01  0.00000E+00  0.11634E+00  0.58374E-01  0.00000E+00  0.12247E+00
        0.57792E-01  0.00000E+00  0.12876E+00  0.57210E-01  0.00000E+00  0.13442E+00  0.56819E-01  0.00000E+00  0.14044E+00  0.56193E-01  0.00000E+00  0.14782E+00  0.56304E-01  0.00000E+00  0.15244E+00  0.55931E-01  0.00000E+00  0.15693E+00
        0.11790E+00  0.00000E+00  0.34115E-02  0.10579E+00  0.00000E+00  0.71060E-02  0.98027E-01  0.00000E+00  0.13653E-01  0.10806E+00  0.00000E+00  0.18708E-01  0.95887E-01  0.00000E+00  0.22508E-01  0.10527E+00  0.00000E+00  0.27509E-01
        0.90146E-01  0.00000E+00  0.29496E-01  0.98025E-01  0.00000E+00  0.35744E-01  0.85645E-01  0.00000E+00  0.38392E-01  0.92958E-01  0.00000E+00  0.44920E-01  0.81559E-01  0.00000E+00  0.47842E-01  0.88963E-01  0.00000E+00  0.54536E-01
        0.78834E-01  0.00000E+00  0.58303E-01  0.85007E-01  0.00000E+00  0.64917E-01  0.78268E-01  0.00000E+00  0.69508E-01  0.80803E-01  0.00000E+00  0.75803E-01  0.78465E-01  0.00000E+00  0.81451E-01  0.78532E-01  0.00000E+00  0.87418E-01
        0.77731E-01  0.00000E+00  0.93342E-01  0.77331E-01  0.00000E+00  0.99285E-01  0.76714E-01  0.00000E+00  0.10527E+00  0.76250E-01  0.00000E+00  0.11128E+00  0.75640E-01  0.00000E+00  0.11714E+00  0.75109E-01  0.00000E+00  0.12319E+00
        0.74565E-01  0.00000E+00  0.12939E+00  0.74090E-01  0.00000E+00  0.13493E+00  0.73564E-01  0.00000E+00  0.14089E+00  0.73240E-01  0.00000E+00  0.14816E+00  0.72718E-01  0.00000E+00  0.15261E+00  0.72709E-01  0.00000E+00  0.15715E+00
        0.13626E+00  0.00000E+00  0.33858E-02  0.12798E+00  0.00000E+00  0.93411E-02  0.11599E+00  0.00000E+00  0.12858E-01  0.13529E+00  0.00000E+00  0.16412E-01  0.12355E+00  0.00000E+00  0.19102E-01  0.13101E+00  0.00000E+00  0.25099E-01
        0.11707E+00  0.00000E+00  0.25735E-01  0.11808E+00  0.00000E+00  0.34321E-01  0.10837E+00  0.00000E+00  0.36789E-01  0.11225E+00  0.00000E+00  0.44896E-01  0.10203E+00  0.00000E+00  0.47200E-01  0.10574E+00  0.00000E+00  0.55396E-01
        0.97434E-01  0.00000E+00  0.59485E-01  0.10183E+00  0.00000E+00  0.66474E-01  0.96365E-01  0.00000E+00  0.71375E-01  0.97742E-01  0.00000E+00  0.77633E-01  0.95790E-01  0.00000E+00  0.83198E-01  0.95712E-01  0.00000E+00  0.89176E-01
        0.94830E-01  0.00000E+00  0.95003E-01  0.94497E-01  0.00000E+00  0.10086E+00  0.93768E-01  0.00000E+00  0.10678E+00  0.93375E-01  0.00000E+00  0.11268E+00  0.92741E-01  0.00000E+00  0.11842E+00  0.92180E-01  0.00000E+00  0.12441E+00
        0.91737E-01  0.00000E+00  0.13050E+00  0.91168E-01  0.00000E+00  0.13583E+00  0.90719E-01  0.00000E+00  0.14181E+00  0.90458E-01  0.00000E+00  0.14907E+00  0.90327E-01  0.00000E+00  0.15323E+00  0.90128E-01  0.00000E+00  0.15765E+00
        0.15304E+00  0.00000E+00  0.33167E-02  0.16173E+00  0.00000E+00  0.87491E-02  0.14475E+00  0.00000E+00  0.10092E-01  0.15930E+00  0.00000E+00  0.16787E-01  0.14732E+00  0.00000E+00  0.18115E-01  0.15439E+00  0.00000E+00  0.24708E-01
        0.14306E+00  0.00000E+00  0.26553E-01  0.13832E+00  0.00000E+00  0.33585E-01  0.12814E+00  0.00000E+00  0.34930E-01  0.12606E+00  0.00000E+00  0.42955E-01  0.12390E+00  0.00000E+00  0.50224E-01  0.11617E+00  0.00000E+00  0.54958E-01
        0.12195E+00  0.00000E+00  0.62248E-01  0.11442E+00  0.00000E+00  0.66197E-01  0.11656E+00  0.00000E+00  0.72734E-01  0.11437E+00  0.00000E+00  0.78267E-01  0.11362E+00  0.00000E+00  0.84104E-01  0.11311E+00  0.00000E+00  0.89975E-01
        0.11232E+00  0.00000E+00  0.95777E-01  0.11200E+00  0.00000E+00  0.10161E+00  0.11124E+00  0.00000E+00  0.10748E+00  0.11090E+00  0.00000E+00  0.11332E+00  0.11030E+00  0.00000E+00  0.11902E+00  0.10972E+00  0.00000E+00  0.12497E+00
        0.10932E+00  0.00000E+00  0.13100E+00  0.10885E+00  0.00000E+00  0.13623E+00  0.10829E+00  0.00000E+00  0.14218E+00  0.10815E+00  0.00000E+00  0.14941E+00  0.10767E+00  0.00000E+00  0.15342E+00  0.10756E+00  0.00000E+00  0.15782E+00
        0.17243E+00  0.00000E+00  0.33708E-02  0.18244E+00  0.00000E+00  0.93541E-02  0.17289E+00  0.00000E+00  0.13505E-01  0.19122E+00  0.00000E+00  0.15188E-01  0.18043E+00  0.00000E+00  0.20946E-01  0.16887E+00  0.00000E+00  0.21809E-01
        0.16493E+00  0.00000E+00  0.30153E-01  0.15435E+00  0.00000E+00  0.33580E-01  0.14965E+00  0.00000E+00  0.40568E-01  0.13982E+00  0.00000E+00  0.42110E-01  0.14204E+00  0.00000E+00  0.50392E-01  0.13336E+00  0.00000E+00  0.53851E-01
        0.13919E+00  0.00000E+00  0.60747E-01  0.13282E+00  0.00000E+00  0.65525E-01  0.13430E+00  0.00000E+00  0.72202E-01  0.13226E+00  0.00000E+00  0.77722E-01  0.13127E+00  0.00000E+00  0.83489E-01  0.13079E+00  0.00000E+00  0.89367E-01
        0.13000E+00  0.00000E+00  0.95155E-01  0.12966E+00  0.00000E+00  0.10096E+00  0.12891E+00  0.00000E+00  0.10682E+00  0.12859E+00  0.00000E+00  0.11266E+00  0.12803E+00  0.00000E+00  0.11834E+00  0.12743E+00  0.00000E+00  0.12429E+00
        0.12712E+00  0.00000E+00  0.13031E+00  0.12663E+00  0.00000E+00  0.13552E+00  0.12604E+00  0.00000E+00  0.14152E+00  0.12596E+00  0.00000E+00  0.14872E+00  0.12555E+00  0.00000E+00  0.15268E+00  0.12533E+00  0.00000E+00  0.15711E+00
[...]
<PointData>
      <DataArray type="Float32" Name="Velocity vectors"  NumberOfComponents="3"  format="ascii" >
          0.80985E-01  0.00000E+00 -0.83848E-03  0.58248E-01  0.00000E+00  0.38986E-02  0.18588E-01  0.00000E+00 -0.14720E-01  0.10149E+00  0.00000E+00 -0.32460E-01 -0.13593E-01  0.00000E+00 -0.74163E-01  0.46716E-02  0.00000E+00 -0.73436E-01
          0.18101E-02  0.00000E+00 -0.81714E-01  0.85108E-02  0.00000E+00 -0.83225E-01 -0.67870E-02  0.00000E+00 -0.83276E-01 -0.42511E-02  0.00000E+00 -0.79410E-01 -0.10308E-01  0.00000E+00 -0.74157E-01  0.21716E-02  0.00000E+00 -0.67975E-01
          0.28470E-02  0.00000E+00 -0.64255E-01  0.13088E-01  0.00000E+00 -0.62345E-01  0.16323E-01  0.00000E+00 -0.65062E-01  0.20803E-01  0.00000E+00 -0.69924E-01  0.21846E-01  0.00000E+00 -0.76542E-01  0.23068E-01  0.00000E+00 -0.82766E-01
          0.22640E-01  0.00000E+00 -0.89595E-01  0.22571E-01  0.00000E+00 -0.96800E-01  0.21947E-01  0.00000E+00 -0.10447E+00  0.20887E-01  0.00000E+00 -0.11257E+00  0.20032E-01  0.00000E+00 -0.12020E+00  0.19028E-01  0.00000E+00 -0.12828E+00
          0.15947E-01  0.00000E+00 -0.13803E+00  0.13053E-01  0.00000E+00 -0.14676E+00  0.14503E-01  0.00000E+00 -0.15213E+00  0.11489E-01  0.00000E+00 -0.15984E+00  0.38477E-02  0.00000E+00 -0.17088E+00  0.51245E-02  0.00000E+00 -0.17878E+00
          0.91594E-01  0.00000E+00 -0.16234E-02  0.72764E-01  0.00000E+00 -0.25819E-02  0.77262E-01  0.00000E+00 -0.90504E-02  0.84856E-01  0.00000E+00 -0.11492E-01  0.35474E-01  0.00000E+00 -0.21187E-01  0.38684E-01  0.00000E+00 -0.25902E-01
          0.13799E-01  0.00000E+00 -0.41864E-01  0.23334E-01  0.00000E+00 -0.38362E-01  0.77149E-02  0.00000E+00 -0.56897E-01  0.14422E-01  0.00000E+00 -0.49279E-01 -0.47213E-02  0.00000E+00 -0.65105E-01  0.17442E-01  0.00000E+00 -0.68134E-01
         -0.30447E-01  0.00000E+00 -0.79066E-01  0.55619E-01  0.00000E+00 -0.96307E-01 -0.28922E-01  0.00000E+00 -0.98537E-01  0.63204E-01  0.00000E+00 -0.11178E+00  0.26683E-01  0.00000E+00 -0.11734E+00  0.47218E-01  0.00000E+00 -0.12082E+00
          0.41486E-01  0.00000E+00 -0.12682E+00  0.42963E-01  0.00000E+00 -0.13103E+00  0.41559E-01  0.00000E+00 -0.13496E+00  0.40414E-01  0.00000E+00 -0.14024E+00  0.38564E-01  0.00000E+00 -0.14553E+00  0.37398E-01  0.00000E+00 -0.14761E+00
          0.33990E-01  0.00000E+00 -0.15272E+00  0.35629E-01  0.00000E+00 -0.16183E+00  0.26931E-01  0.00000E+00 -0.16094E+00  0.29511E-01  0.00000E+00 -0.16514E+00  0.21830E-01  0.00000E+00 -0.17820E+00  0.22735E-01  0.00000E+00 -0.18312E+00
          0.97470E-01  0.00000E+00 -0.18789E-03  0.97510E-01  0.00000E+00 -0.66049E-02  0.12391E+00  0.00000E+00 -0.13833E-01  0.12068E+00  0.00000E+00 -0.16717E-01  0.97615E-01  0.00000E+00 -0.19841E-01  0.82336E-01  0.00000E+00 -0.25403E-01
          0.47387E-01  0.00000E+00 -0.34404E-01  0.54365E-01  0.00000E+00 -0.42128E-01  0.35586E-01  0.00000E+00 -0.46496E-01  0.47498E-01  0.00000E+00 -0.53818E-01  0.33227E-01  0.00000E+00 -0.61579E-01  0.54737E-01  0.00000E+00 -0.71143E-01
          0.14603E-01  0.00000E+00 -0.80219E-01  0.93161E-01  0.00000E+00 -0.89294E-01 -0.10168E-01  0.00000E+00 -0.10724E+00  0.95289E-01  0.00000E+00 -0.11696E+00  0.42264E-01  0.00000E+00 -0.12344E+00  0.68826E-01  0.00000E+00 -0.12821E+00
          0.58939E-01  0.00000E+00 -0.13447E+00  0.61343E-01  0.00000E+00 -0.13944E+00  0.58834E-01  0.00000E+00 -0.14393E+00  0.58205E-01  0.00000E+00 -0.14963E+00  0.54996E-01  0.00000E+00 -0.15535E+00  0.54189E-01  0.00000E+00 -0.15798E+00
          0.50466E-01  0.00000E+00 -0.16388E+00  0.49065E-01  0.00000E+00 -0.17185E+00  0.45523E-01  0.00000E+00 -0.17050E+00  0.44256E-01  0.00000E+00 -0.17591E+00  0.39673E-01  0.00000E+00 -0.18688E+00  0.40169E-01  0.00000E+00 -0.19056E+00
          0.15566E+00  0.00000E+00  0.94303E-03  0.12465E+00  0.00000E+00 -0.78864E-02  0.13580E+00  0.00000E+00 -0.16719E-01  0.12908E+00  0.00000E+00 -0.20373E-01  0.12039E+00  0.00000E+00 -0.13128E-01  0.11773E+00  0.00000E+00 -0.21476E-01
          0.88763E-01  0.00000E+00 -0.31763E-01  0.90337E-01  0.00000E+00 -0.36605E-01  0.67261E-01  0.00000E+00 -0.46678E-01  0.81353E-01  0.00000E+00 -0.51382E-01  0.66699E-01  0.00000E+00 -0.63220E-01  0.93175E-01  0.00000E+00 -0.68234E-01
          0.57581E-01  0.00000E+00 -0.81967E-01  0.13135E+00  0.00000E+00 -0.83783E-01  0.26813E-01  0.00000E+00 -0.11121E+00  0.13019E+00  0.00000E+00 -0.11732E+00  0.61522E-01  0.00000E+00 -0.12982E+00  0.92152E-01  0.00000E+00 -0.13349E+00
          0.79537E-01  0.00000E+00 -0.14076E+00  0.82162E-01  0.00000E+00 -0.14571E+00  0.77561E-01  0.00000E+00 -0.15061E+00  0.77652E-01  0.00000E+00 -0.15654E+00  0.73059E-01  0.00000E+00 -0.16236E+00  0.71416E-01  0.00000E+00 -0.16506E+00
          0.68065E-01  0.00000E+00 -0.17107E+00  0.64430E-01  0.00000E+00 -0.17904E+00  0.62184E-01  0.00000E+00 -0.17769E+00  0.58491E-01  0.00000E+00 -0.18320E+00  0.59498E-01  0.00000E+00 -0.19296E+00  0.57969E-01  0.00000E+00 -0.19623E+00
          0.18432E+00  0.00000E+00 -0.47196E-03  0.16833E+00  0.00000E+00 -0.79084E-02  0.14514E+00  0.00000E+00 -0.14084E-01  0.15533E+00  0.00000E+00 -0.24042E-01  0.13764E+00  0.00000E+00 -0.18315E-01  0.14813E+00  0.00000E+00 -0.31975E-01
          0.12173E+00  0.00000E+00 -0.32092E-01  0.13843E+00  0.00000E+00 -0.41261E-01  0.10872E+00  0.00000E+00 -0.43577E-01  0.13477E+00  0.00000E+00 -0.57398E-01  0.10484E+00  0.00000E+00 -0.68400E-01  0.13856E+00  0.00000E+00 -0.79974E-01
          0.98110E-01  0.00000E+00 -0.89950E-01  0.17490E+00  0.00000E+00 -0.90813E-01  0.69843E-01  0.00000E+00 -0.12346E+00  0.15835E+00  0.00000E+00 -0.11693E+00  0.89991E-01  0.00000E+00 -0.13276E+00  0.11328E+00  0.00000E+00 -0.13651E+00
          0.99101E-01  0.00000E+00 -0.14270E+00  0.10127E+00  0.00000E+00 -0.14644E+00  0.95863E-01  0.00000E+00 -0.15106E+00  0.94775E-01  0.00000E+00 -0.15636E+00  0.89967E-01  0.00000E+00 -0.16117E+00  0.86968E-01  0.00000E+00 -0.16363E+00
          0.83344E-01  0.00000E+00 -0.16965E+00  0.80616E-01  0.00000E+00 -0.17682E+00  0.77269E-01  0.00000E+00 -0.17543E+00  0.75715E-01  0.00000E+00 -0.18100E+00  0.73375E-01  0.00000E+00 -0.19107E+00  0.73771E-01  0.00000E+00 -0.19418E+00
          0.20385E+00  0.00000E+00 -0.17563E-02  0.18695E+00  0.00000E+00 -0.85327E-02  0.17014E+00  0.00000E+00 -0.46558E-02  0.22387E+00  0.00000E+00 -0.33252E-01  0.19280E+00  0.00000E+00 -0.26401E-01  0.20094E+00  0.00000E+00 -0.46029E-01
          0.16350E+00  0.00000E+00 -0.39237E-01  0.17718E+00  0.00000E+00 -0.40992E-01  0.16073E+00  0.00000E+00 -0.55028E-01  0.18768E+00  0.00000E+00 -0.63055E-01  0.15171E+00  0.00000E+00 -0.85611E-01  0.17694E+00  0.00000E+00 -0.79880E-01
          0.12482E+00  0.00000E+00 -0.10464E+00  0.20755E+00  0.00000E+00 -0.93521E-01  0.10085E+00  0.00000E+00 -0.12925E+00  0.17109E+00  0.00000E+00 -0.11782E+00  0.11422E+00  0.00000E+00 -0.13340E+00  0.13039E+00  0.00000E+00 -0.13211E+00
          0.11357E+00  0.00000E+00 -0.13871E+00  0.11765E+00  0.00000E+00 -0.14096E+00  0.10885E+00  0.00000E+00 -0.14433E+00  0.11009E+00  0.00000E+00 -0.14872E+00  0.10473E+00  0.00000E+00 -0.15250E+00  0.10158E+00  0.00000E+00 -0.15427E+00
          0.99873E-01  0.00000E+00 -0.16010E+00  0.95895E-01  0.00000E+00 -0.16739E+00  0.93384E-01  0.00000E+00 -0.16522E+00  0.92454E-01  0.00000E+00 -0.17059E+00  0.92343E-01  0.00000E+00 -0.18169E+00  0.91770E-01  0.00000E+00 -0.18483E+00
          0.24764E+00  0.00000E+00 -0.35139E-02  0.26935E+00  0.00000E+00 -0.16457E-01  0.22804E+00  0.00000E+00 -0.20860E-01  0.25439E+00  0.00000E+00 -0.24674E-01  0.24227E+00  0.00000E+00 -0.26347E-01  0.25360E+00  0.00000E+00 -0.39227E-01
          0.22536E+00  0.00000E+00 -0.48238E-01  0.21460E+00  0.00000E+00 -0.58683E-01  0.18695E+00  0.00000E+00 -0.82033E-01  0.19811E+00  0.00000E+00 -0.75179E-01  0.19822E+00  0.00000E+00 -0.61687E-01  0.16057E+00  0.00000E+00 -0.86954E-01
          0.23530E+00  0.00000E+00 -0.78071E-01  0.13227E+00  0.00000E+00 -0.11996E+00  0.21400E+00  0.00000E+00 -0.10669E+00  0.14652E+00  0.00000E+00 -0.12725E+00  0.14089E+00  0.00000E+00 -0.12457E+00  0.13709E+00  0.00000E+00 -0.12794E+00
          0.12553E+00  0.00000E+00 -0.13318E+00  0.12992E+00  0.00000E+00 -0.13471E+00  0.12036E+00  0.00000E+00 -0.13799E+00  0.12333E+00  0.00000E+00 -0.14231E+00  0.11894E+00  0.00000E+00 -0.14546E+00  0.11584E+00  0.00000E+00 -0.14701E+00
          0.11605E+00  0.00000E+00 -0.15274E+00  0.11429E+00  0.00000E+00 -0.15976E+00  0.11108E+00  0.00000E+00 -0.15709E+00  0.11288E+00  0.00000E+00 -0.16238E+00  0.11137E+00  0.00000E+00 -0.17455E+00  0.11142E+00  0.00000E+00 -0.17766E+00
          0.28928E+00  0.00000E+00 -0.99321E-03  0.30241E+00  0.00000E+00 -0.11796E-01  0.28331E+00  0.00000E+00 -0.17001E-01  0.31766E+00  0.00000E+00 -0.31589E-01  0.30409E+00  0.00000E+00 -0.34070E-01  0.27270E+00  0.00000E+00 -0.34439E-01
          0.25996E+00  0.00000E+00 -0.44921E-01  0.22415E+00  0.00000E+00 -0.52511E-01  0.21054E+00  0.00000E+00 -0.64713E-01  0.18453E+00  0.00000E+00 -0.67181E-01  0.22339E+00  0.00000E+00 -0.61873E-01  0.18408E+00  0.00000E+00 -0.91349E-01
          0.26329E+00  0.00000E+00 -0.85241E-01  0.17402E+00  0.00000E+00 -0.11677E+00  0.22878E+00  0.00000E+00 -0.10088E+00  0.16961E+00  0.00000E+00 -0.11694E+00  0.15465E+00  0.00000E+00 -0.11837E+00  0.15401E+00  0.00000E+00 -0.12285E+00
          0.14122E+00  0.00000E+00 -0.12853E+00  0.14483E+00  0.00000E+00 -0.13115E+00  0.13590E+00  0.00000E+00 -0.13555E+00  0.13877E+00  0.00000E+00 -0.14059E+00  0.13573E+00  0.00000E+00 -0.14452E+00  0.13256E+00  0.00000E+00 -0.14696E+00
          0.13450E+00  0.00000E+00 -0.15337E+00  0.13308E+00  0.00000E+00 -0.16079E+00  0.13026E+00  0.00000E+00 -0.15842E+00  0.13399E+00  0.00000E+00 -0.16431E+00  0.13334E+00  0.00000E+00 -0.17636E+00  0.13301E+00  0.00000E+00 -0.17877E+00
          0.32401E+00  0.00000E+00 -0.23224E-02  0.34970E+00  0.00000E+00 -0.14950E-01  0.35597E+00  0.00000E+00 -0.85497E-02  0.36902E+00  0.00000E+00 -0.17084E-01  0.33229E+00  0.00000E+00 -0.43103E-01  0.32074E+00  0.00000E+00 -0.33940E-01
          0.29550E+00  0.00000E+00 -0.52409E-01  0.28516E+00  0.00000E+00 -0.61258E-01  0.26364E+00  0.00000E+00 -0.68851E-01  0.24966E+00  0.00000E+00 -0.84462E-01  0.27219E+00  0.00000E+00 -0.77860E-01  0.21881E+00  0.00000E+00 -0.12362E+00
          0.26243E+00  0.00000E+00 -0.10714E+00  0.20322E+00  0.00000E+00 -0.10963E+00  0.20727E+00  0.00000E+00 -0.98868E-01  0.21045E+00  0.00000E+00 -0.10021E+00  0.17036E+00  0.00000E+00 -0.10906E+00  0.17699E+00  0.00000E+00 -0.11027E+00
          0.15938E+00  0.00000E+00 -0.11789E+00  0.16554E+00  0.00000E+00 -0.12149E+00  0.15530E+00  0.00000E+00 -0.12602E+00  0.16015E+00  0.00000E+00 -0.13193E+00  0.15683E+00  0.00000E+00 -0.13638E+00  0.15396E+00  0.00000E+00 -0.13933E+00
          0.15664E+00  0.00000E+00 -0.14609E+00  0.15516E+00  0.00000E+00 -0.15420E+00  0.15182E+00  0.00000E+00 -0.15232E+00  0.15581E+00  0.00000E+00 -0.15751E+00  0.15413E+00  0.00000E+00 -0.17056E+00  0.15407E+00  0.00000E+00 -0.17399E+00
          0.36625E+00  0.00000E+00 -0.67006E-03  0.37673E+00  0.00000E+00 -0.10991E-01  0.40753E+00  0.00000E+00 -0.12212E-01  0.38044E+00  0.00000E+00 -0.23541E-01  0.39759E+00  0.00000E+00 -0.37682E-01  0.38264E+00  0.00000E+00 -0.36342E-01
          0.34361E+00  0.00000E+00 -0.54279E-01  0.33208E+00  0.00000E+00 -0.53796E-01  0.30508E+00  0.00000E+00 -0.70487E-01  0.29308E+00  0.00000E+00 -0.70196E-01  0.26703E+00  0.00000E+00 -0.86663E-01  0.25863E+00  0.00000E+00 -0.70291E-01
          0.21074E+00  0.00000E+00 -0.89686E-01  0.29487E+00  0.00000E+00 -0.90782E-01  0.19131E+00  0.00000E+00 -0.11774E+00  0.23362E+00  0.00000E+00 -0.11309E+00  0.19177E+00  0.00000E+00 -0.12226E+00  0.19808E+00  0.00000E+00 -0.12454E+00
          0.18351E+00  0.00000E+00 -0.12982E+00  0.18750E+00  0.00000E+00 -0.13364E+00  0.17849E+00  0.00000E+00 -0.13821E+00  0.18160E+00  0.00000E+00 -0.14373E+00  0.17919E+00  0.00000E+00 -0.14748E+00  0.17619E+00  0.00000E+00 -0.15032E+00
          0.17861E+00  0.00000E+00 -0.15679E+00  0.17755E+00  0.00000E+00 -0.16361E+00  0.17390E+00  0.00000E+00 -0.16171E+00  0.17803E+00  0.00000E+00 -0.16751E+00  0.17650E+00  0.00000E+00 -0.17912E+00  0.17599E+00  0.00000E+00 -0.18129E+00
          0.39115E+00  0.00000E+00 -0.91787E-03  0.41851E+00  0.00000E+00 -0.13421E-01  0.44211E+00  0.00000E+00 -0.13942E-01  0.42211E+00  0.00000E+00 -0.25611E-01  0.42260E+00  0.00000E+00 -0.27305E-01  0.41009E+00  0.00000E+00 -0.29956E-01
          0.39466E+00  0.00000E+00 -0.45125E-01  0.38501E+00  0.00000E+00 -0.44079E-01  0.35456E+00  0.00000E+00 -0.68551E-01  0.33683E+00  0.00000E+00 -0.74476E-01  0.30966E+00  0.00000E+00 -0.88858E-01  0.29193E+00  0.00000E+00 -0.79595E-01
          0.24271E+00  0.00000E+00 -0.11830E+00  0.31736E+00  0.00000E+00 -0.10727E+00  0.21939E+00  0.00000E+00 -0.12041E+00  0.23214E+00  0.00000E+00 -0.11144E+00  0.21729E+00  0.00000E+00 -0.11911E+00  0.21505E+00  0.00000E+00 -0.12217E+00
          0.20185E+00  0.00000E+00 -0.12702E+00  0.20662E+00  0.00000E+00 -0.13055E+00  0.19598E+00  0.00000E+00 -0.13545E+00  0.19996E+00  0.00000E+00 -0.14025E+00  0.19718E+00  0.00000E+00 -0.14429E+00  0.19382E+00  0.00000E+00 -0.14704E+00
          0.19695E+00  0.00000E+00 -0.15310E+00  0.19585E+00  0.00000E+00 -0.16003E+00  0.19204E+00  0.00000E+00 -0.15837E+00  0.19709E+00  0.00000E+00 -0.16360E+00  0.19508E+00  0.00000E+00 -0.17491E+00  0.19494E+00  0.00000E+00 -0.17787E+00
          0.44098E+00  0.00000E+00 -0.73173E-03  0.46268E+00  0.00000E+00 -0.12011E-01  0.47536E+00  0.00000E+00 -0.10663E-01  0.44829E+00  0.00000E+00 -0.21581E-01  0.45180E+00  0.00000E+00 -0.25578E-01  0.44094E+00  0.00000E+00 -0.26903E-01
          0.43018E+00  0.00000E+00 -0.40065E-01  0.41570E+00  0.00000E+00 -0.43341E-01  0.39812E+00  0.00000E+00 -0.53936E-01  0.37777E+00  0.00000E+00 -0.60169E-01  0.34286E+00  0.00000E+00 -0.80859E-01  0.32415E+00  0.00000E+00 -0.74953E-01
          0.28834E+00  0.00000E+00 -0.11657E+00  0.32398E+00  0.00000E+00 -0.94091E-01  0.22140E+00  0.00000E+00 -0.12377E+00  0.24307E+00  0.00000E+00 -0.11019E+00  0.23432E+00  0.00000E+00 -0.11865E+00  0.23391E+00  0.00000E+00 -0.12268E+00
          0.22133E+00  0.00000E+00 -0.12631E+00  0.22640E+00  0.00000E+00 -0.12971E+00  0.21574E+00  0.00000E+00 -0.13498E+00  0.21953E+00  0.00000E+00 -0.13981E+00  0.21695E+00  0.00000E+00 -0.14376E+00  0.21383E+00  0.00000E+00 -0.14684E+00
          0.21694E+00  0.00000E+00 -0.15306E+00  0.21610E+00  0.00000E+00 -0.15987E+00  0.21212E+00  0.00000E+00 -0.15855E+00  0.21729E+00  0.00000E+00 -0.16393E+00  0.21526E+00  0.00000E+00 -0.17526E+00  0.21496E+00  0.00000E+00 -0.17793E+00
          0.47808E+00  0.00000E+00 -0.21901E-03  0.49687E+00  0.00000E+00 -0.10976E-01  0.50685E+00  0.00000E+00 -0.97455E-02  0.48004E+00  0.00000E+00 -0.20371E-01  0.48302E+00  0.00000E+00 -0.24142E-01  0.47173E+00  0.00000E+00 -0.26350E-01
          0.46440E+00  0.00000E+00 -0.38088E-01  0.45182E+00  0.00000E+00 -0.42058E-01  0.43508E+00  0.00000E+00 -0.51661E-01  0.41443E+00  0.00000E+00 -0.57862E-01  0.39397E+00  0.00000E+00 -0.69113E-01  0.36525E+00  0.00000E+00 -0.71900E-01
          0.32802E+00  0.00000E+00 -0.10287E+00  0.33259E+00  0.00000E+00 -0.86721E-01  0.24541E+00  0.00000E+00 -0.12527E+00  0.24458E+00  0.00000E+00 -0.10556E+00  0.25372E+00  0.00000E+00 -0.11535E+00  0.24899E+00  0.00000E+00 -0.12008E+00
          0.23791E+00  0.00000E+00 -0.12192E+00  0.24587E+00  0.00000E+00 -0.12544E+00  0.23387E+00  0.00000E+00 -0.13122E+00  0.23873E+00  0.00000E+00 -0.13552E+00  0.23628E+00  0.00000E+00 -0.13969E+00  0.23260E+00  0.00000E+00 -0.14294E+00
          0.23620E+00  0.00000E+00 -0.14898E+00  0.23530E+00  0.00000E+00 -0.15588E+00  0.23073E+00  0.00000E+00 -0.15466E+00  0.23642E+00  0.00000E+00 -0.15983E+00  0.23404E+00  0.00000E+00 -0.17102E+00  0.23382E+00  0.00000E+00 -0.17391E+00
          0.51246E+00  0.00000E+00 -0.39817E-03  0.53110E+00  0.00000E+00 -0.10997E-01  0.53659E+00  0.00000E+00 -0.90579E-02  0.50975E+00  0.00000E+00 -0.19947E-01  0.51256E+00  0.00000E+00 -0.24267E-01  0.50093E+00  0.00000E+00 -0.26214E-01
          0.49500E+00  0.00000E+00 -0.34978E-01  0.48426E+00  0.00000E+00 -0.40716E-01  0.47052E+00  0.00000E+00 -0.49106E-01  0.45406E+00  0.00000E+00 -0.53935E-01  0.43466E+00  0.00000E+00 -0.64496E-01  0.40980E+00  0.00000E+00 -0.78878E-01
          0.38228E+00  0.00000E+00 -0.76247E-01  0.34752E+00  0.00000E+00 -0.84951E-01  0.28065E+00  0.00000E+00 -0.12128E+00  0.25673E+00  0.00000E+00 -0.10517E+00  0.26614E+00  0.00000E+00 -0.11304E+00  0.26314E+00  0.00000E+00 -0.11922E+00
          0.25431E+00  0.00000E+00 -0.11989E+00  0.26558E+00  0.00000E+00 -0.12266E+00  0.25298E+00  0.00000E+00 -0.12904E+00  0.25897E+00  0.00000E+00 -0.13306E+00  0.25662E+00  0.00000E+00 -0.13691E+00  0.25248E+00  0.00000E+00 -0.14050E+00
          0.25646E+00  0.00000E+00 -0.14646E+00  0.25560E+00  0.00000E+00 -0.15316E+00  0.25008E+00  0.00000E+00 -0.15221E+00  0.25615E+00  0.00000E+00 -0.15713E+00  0.25344E+00  0.00000E+00 -0.16851E+00  0.25311E+00  0.00000E+00 -0.17151E+00
          0.54893E+00  0.00000E+00 -0.66624E-03  0.56662E+00  0.00000E+00 -0.10742E-01  0.56662E+00  0.00000E+00 -0.80004E-02  0.53913E+00  0.00000E+00 -0.20294E-01  0.54272E+00  0.00000E+00 -0.25132E-01  0.52952E+00  0.00000E+00 -0.26920E-01
          0.52429E+00  0.00000E+00 -0.34119E-01  0.51493E+00  0.00000E+00 -0.40105E-01  0.50387E+00  0.00000E+00 -0.47160E-01  0.48875E+00  0.00000E+00 -0.52063E-01  0.47015E+00  0.00000E+00 -0.58655E-01  0.44694E+00  0.00000E+00 -0.73626E-01
          0.41699E+00  0.00000E+00 -0.77537E-01  0.38391E+00  0.00000E+00 -0.72208E-01  0.33868E+00  0.00000E+00 -0.10840E+00  0.27846E+00  0.00000E+00 -0.11598E+00  0.27866E+00  0.00000E+00 -0.11360E+00  0.27770E+00  0.00000E+00 -0.12384E+00
          0.26900E+00  0.00000E+00 -0.12560E+00  0.28304E+00  0.00000E+00 -0.12599E+00  0.27153E+00  0.00000E+00 -0.13249E+00  0.27838E+00  0.00000E+00 -0.13673E+00  0.27651E+00  0.00000E+00 -0.13968E+00  0.27220E+00  0.00000E+00 -0.14336E+00
          0.27622E+00  0.00000E+00 -0.14928E+00  0.27535E+00  0.00000E+00 -0.15533E+00  0.26936E+00  0.00000E+00 -0.15450E+00  0.27538E+00  0.00000E+00 -0.15943E+00  0.27250E+00  0.00000E+00 -0.17019E+00  0.27203E+00  0.00000E+00 -0.17279E+00
          0.58658E+00  0.00000E+00 -0.66948E-03  0.59966E+00  0.00000E+00 -0.92714E-02  0.60119E+00  0.00000E+00 -0.66507E-02  0.57044E+00  0.00000E+00 -0.18639E-01  0.57851E+00  0.00000E+00 -0.27001E-01  0.56158E+00  0.00000E+00 -0.28185E-01
          0.55401E+00  0.00000E+00 -0.35084E-01  0.54571E+00  0.00000E+00 -0.41358E-01  0.53626E+00  0.00000E+00 -0.47345E-01  0.52206E+00  0.00000E+00 -0.52051E-01  0.50603E+00  0.00000E+00 -0.56909E-01  0.48230E+00  0.00000E+00 -0.68639E-01
          0.45863E+00  0.00000E+00 -0.78080E-01  0.41952E+00  0.00000E+00 -0.75738E-01  0.39349E+00  0.00000E+00 -0.91694E-01  0.33523E+00  0.00000E+00 -0.12219E+00  0.29785E+00  0.00000E+00 -0.11194E+00  0.29300E+00  0.00000E+00 -0.12159E+00
          0.28122E+00  0.00000E+00 -0.12982E+00  0.30021E+00  0.00000E+00 -0.12799E+00  0.28767E+00  0.00000E+00 -0.13234E+00  0.29663E+00  0.00000E+00 -0.13817E+00  0.29526E+00  0.00000E+00 -0.14054E+00  0.29046E+00  0.00000E+00 -0.14362E+00
          0.29498E+00  0.00000E+00 -0.14970E+00  0.29408E+00  0.00000E+00 -0.15546E+00  0.28725E+00  0.00000E+00 -0.15461E+00  0.29367E+00  0.00000E+00 -0.15935E+00  0.29049E+00  0.00000E+00 -0.16984E+00  0.29000E+00  0.00000E+00 -0.17244E+00
          0.61588E+00  0.00000E+00 -0.63085E-03  0.62703E+00  0.00000E+00 -0.80087E-02  0.64158E+00  0.00000E+00 -0.94726E-02  0.60404E+00  0.00000E+00 -0.12101E-01  0.63027E+00  0.00000E+00 -0.33570E-01  0.60264E+00  0.00000E+00 -0.29234E-01