<?xml version="1.0"?>
<VTKFile type="UnstructuredGrid" version="0.1" byte_order="LittleEndian" compressor="vtkZLibDataCompressor">
<UnstructuredGrid>
  <Piece NumberOfPoints="1800"        NumberOfCells="1"      >
    <Points>
      <DataArray type="Float32" NumberOfComponents="3" format="ascii" >
        0.54334E-01  0.00000E+00  0.24923E-02  0.36753E-01  0.00000E+00  0.31166E-02  0.19208E-01  0.00000E+00  0.37392E-02  0.26906E-01  0.00000E+00  0.91705E-02  0.74383E-02  0.00000E+00  0.66908E-02  0.14729E-01  0.00000E+00  0.12884E-01
        0.63169E-02  0.00000E+00  0.16701E-01  0.15635E-01  0.00000E+00  0.21425E-01  0.72454E-02  0.00000E+00  0.25608E-01  0.12535E-01  0.00000E+00  0.31036E-01  0.68206E-02  0.00000E+00  0.36472E-01  0.13222E-01  0.00000E+00  0.41721E-01
        0.70449E-02  0.00000E+00  0.46865E-01  0.14278E-01  0.00000E+00  0.51547E-01  0.70147E-02  0.00000E+00  0.57028E-01  0.15230E-01  0.00000E+00  0.60464E-01  0.10865E-01  0.00000E+00  0.65580E-01  0.14624E-01  0.00000E+00  0.70153E-01
        0.13168E-01  0.00000E+00  0.74874E-01  0.13389E-01  0.00000E+00  0.79452E-01  0.12808E-01  0.00000E+00  0.83785E-01  0.12674E-01  0.00000E+00  0.88528E-01  0.12514E-01  0.00000E+00  0.93241E-01  0.11927E-01  0.00000E+00  0.97649E-01
        0.10884E-01  0.00000E+00  0.10203E+00  0.10394E-01  0.00000E+00  0.10719E+00  0.10945E-01  0.00000E+00  0.11269E+00  0.10140E-01  0.00000E+00  0.11753E+00  0.75726E-02  0.00000E+00  0.12141E+00  0.78120E-02  0.00000E+00  0.12484E+00
        0.71534E-01  0.00000E+00  0.31938E-02  0.45541E-01  0.00000E+00  0.90031E-02  0.62700E-01  0.00000E+00  0.94595E-02  0.54218E-01  0.00000E+00  0.14492E-01  0.35604E-01  0.00000E+00  0.14286E-01  0.45053E-01  0.00000E+00  0.19597E-01
        0.25518E-01  0.00000E+00  0.18598E-01  0.38208E-01  0.00000E+00  0.25026E-01  0.26099E-01  0.00000E+00  0.26898E-01  0.38627E-01  0.00000E+00  0.32488E-01  0.23650E-01  0.00000E+00  0.34340E-01  0.36169E-01  0.00000E+00  0.39498E-01
        0.24083E-01  0.00000E+00  0.42803E-01  0.37082E-01  0.00000E+00  0.47175E-01  0.25207E-01  0.00000E+00  0.51202E-01  0.38102E-01  0.00000E+00  0.54917E-01  0.26267E-01  0.00000E+00  0.59794E-01  0.38777E-01  0.00000E+00  0.63266E-01
        0.28055E-01  0.00000E+00  0.68066E-01  0.37843E-01  0.00000E+00  0.71941E-01  0.31113E-01  0.00000E+00  0.76606E-01  0.34481E-01  0.00000E+00  0.82326E-01  0.31155E-01  0.00000E+00  0.87231E-01  0.32839E-01  0.00000E+00  0.92948E-01
        0.29458E-01  0.00000E+00  0.98008E-01  0.32805E-01  0.00000E+00  0.10299E+00  0.27663E-01  0.00000E+00  0.10810E+00  0.30105E-01  0.00000E+00  0.11513E+00  0.27292E-01  0.00000E+00  0.11805E+00  0.27913E-01  0.00000E+00  0.12214E+00
        0.91248E-01  0.00000E+00  0.32260E-02  0.80541E-01  0.00000E+00  0.86352E-02  0.10171E+00  0.00000E+00  0.82736E-02  0.90067E-01  0.00000E+00  0.13367E-01  0.71181E-01  0.00000E+00  0.15168E-01  0.80810E-01  0.00000E+00  0.19412E-01
        0.61248E-01  0.00000E+00  0.21676E-01  0.71735E-01  0.00000E+00  0.25267E-01  0.52624E-01  0.00000E+00  0.26872E-01  0.64433E-01  0.00000E+00  0.31434E-01  0.50584E-01  0.00000E+00  0.34624E-01  0.62752E-01  0.00000E+00  0.39082E-01
        0.48958E-01  0.00000E+00  0.42388E-01  0.61846E-01  0.00000E+00  0.46619E-01  0.49774E-01  0.00000E+00  0.50522E-01  0.62255E-01  0.00000E+00  0.54677E-01  0.49986E-01  0.00000E+00  0.58810E-01  0.62370E-01  0.00000E+00  0.63239E-01
        0.50462E-01  0.00000E+00  0.67210E-01  0.60658E-01  0.00000E+00  0.71847E-01  0.51075E-01  0.00000E+00  0.75786E-01  0.57430E-01  0.00000E+00  0.81553E-01  0.49934E-01  0.00000E+00  0.85205E-01  0.54164E-01  0.00000E+00  0.91002E-01
        0.49671E-01  0.00000E+00  0.95620E-01  0.50412E-01  0.00000E+00  0.10110E+00  0.48500E-01  0.00000E+00  0.10699E+00  0.48330E-01  0.00000E+00  0.11367E+00  0.46210E-01  0.00000E+00  0.11705E+00  0.46651E-01  0.00000E+00  0.12133E+00
        0.13329E+00  0.00000E+00  0.32117E-02  0.11223E+00  0.00000E+00  0.53854E-02  0.12374E+00  0.00000E+00  0.85849E-02  0.11597E+00  0.00000E+00  0.14878E-01  0.10235E+00  0.00000E+00  0.17138E-01  0.11044E+00  0.00000E+00  0.22481E-01
        0.92670E-01  0.00000E+00  0.22475E-01  0.10179E+00  0.00000E+00  0.28132E-01  0.83915E-01  0.00000E+00  0.28493E-01  0.93737E-01  0.00000E+00  0.33645E-01  0.76879E-01  0.00000E+00  0.34633E-01  0.88926E-01  0.00000E+00  0.40249E-01
        0.75294E-01  0.00000E+00  0.42388E-01  0.87771E-01  0.00000E+00  0.47569E-01  0.74354E-01  0.00000E+00  0.49970E-01  0.86858E-01  0.00000E+00  0.55398E-01  0.73875E-01  0.00000E+00  0.58090E-01  0.85584E-01  0.00000E+00  0.63675E-01
        0.73626E-01  0.00000E+00  0.66490E-01  0.83293E-01  0.00000E+00  0.72557E-01  0.72351E-01  0.00000E+00  0.75337E-01  0.79926E-01  0.00000E+00  0.81316E-01  0.71381E-01  0.00000E+00  0.84365E-01  0.74928E-01  0.00000E+00  0.90581E-01
        0.71322E-01  0.00000E+00  0.95424E-01  0.68790E-01  0.00000E+00  0.10002E+00  0.68388E-01  0.00000E+00  0.10605E+00  0.66797E-01  0.00000E+00  0.11273E+00  0.67434E-01  0.00000E+00  0.11600E+00  0.66649E-01  0.00000E+00  0.12013E+00
        0.16684E+00  0.00000E+00  0.32515E-02  0.14961E+00  0.00000E+00  0.54832E-02  0.13912E+00  0.00000E+00  0.11039E-01  0.15035E+00  0.00000E+00  0.15179E-01  0.13076E+00  0.00000E+00  0.16870E-01  0.14251E+00  0.00000E+00  0.21264E-01
        0.12301E+00  0.00000E+00  0.22698E-01  0.13382E+00  0.00000E+00  0.26470E-01  0.11620E+00  0.00000E+00  0.30230E-01  0.12690E+00  0.00000E+00  0.33655E-01  0.10786E+00  0.00000E+00  0.36207E-01  0.11942E+00  0.00000E+00  0.40247E-01
        0.10254E+00  0.00000E+00  0.42471E-01  0.11543E+00  0.00000E+00  0.47220E-01  0.10080E+00  0.00000E+00  0.49550E-01  0.11275E+00  0.00000E+00  0.54745E-01  0.98758E-01  0.00000E+00  0.57021E-01  0.10919E+00  0.00000E+00  0.62803E-01
        0.96810E-01  0.00000E+00  0.65252E-01  0.10537E+00  0.00000E+00  0.71899E-01  0.94480E-01  0.00000E+00  0.74563E-01  0.10116E+00  0.00000E+00  0.80918E-01  0.93637E-01  0.00000E+00  0.84140E-01  0.94886E-01  0.00000E+00  0.90829E-01
        0.91284E-01  0.00000E+00  0.95077E-01  0.89804E-01  0.00000E+00  0.10029E+00  0.87708E-01  0.00000E+00  0.10603E+00  0.87435E-01  0.00000E+00  0.11255E+00  0.86276E-01  0.00000E+00  0.11565E+00  0.86529E-01  0.00000E+00  0.11984E+00
        0.18845E+00  0.00000E+00  0.31876E-02  0.17777E+00  0.00000E+00  0.77671E-02  0.16034E+00  0.00000E+00  0.10609E-01  0.19173E+00  0.00000E+00  0.12492E-01  0.17005E+00  0.00000E+00  0.15054E-01  0.18207E+00  0.00000E+00  0.16989E-01
        0.15951E+00  0.00000E+00  0.20648E-01  0.16480E+00  0.00000E+00  0.27659E-01  0.14950E+00  0.00000E+00  0.27307E-01  0.15586E+00  0.00000E+00  0.32995E-01  0.13993E+00  0.00000E+00  0.33866E-01  0.14600E+00  0.00000E+00  0.40230E-01
        0.13246E+00  0.00000E+00  0.41935E-01  0.14086E+00  0.00000E+00  0.48433E-01  0.12804E+00  0.00000E+00  0.49414E-01  0.13866E+00  0.00000E+00  0.56491E-01  0.12457E+00  0.00000E+00  0.56771E-01  0.13277E+00  0.00000E+00  0.63457E-01
        0.11984E+00  0.00000E+00  0.64753E-01  0.12698E+00  0.00000E+00  0.72306E-01  0.11546E+00  0.00000E+00  0.74205E-01  0.12255E+00  0.00000E+00  0.80655E-01  0.11514E+00  0.00000E+00  0.83757E-01  0.11425E+00  0.00000E+00  0.90425E-01
        0.11332E+00  0.00000E+00  0.95346E-01  0.10943E+00  0.00000E+00  0.99220E-01  0.10815E+00  0.00000E+00  0.10557E+00  0.10761E+00  0.00000E+00  0.11209E+00  0.10744E+00  0.00000E+00  0.11493E+00  0.10706E+00  0.00000E+00  0.11914E+00
        0.21538E+00  0.00000E+00  0.31020E-02  0.23106E+00  0.00000E+00  0.63989E-02  0.20175E+00  0.00000E+00  0.66754E-02  0.22253E+00  0.00000E+00  0.11334E-01  0.20875E+00  0.00000E+00  0.12924E-01  0.21630E+00  0.00000E+00  0.18472E-01
        0.20003E+00  0.00000E+00  0.19142E-01  0.18997E+00  0.00000E+00  0.22999E-01  0.17500E+00  0.00000E+00  0.23198E-01  0.17649E+00  0.00000E+00  0.31352E-01  0.17090E+00  0.00000E+00  0.38509E-01  0.16122E+00  0.00000E+00  0.40224E-01
        0.17053E+00  0.00000E+00  0.47483E-01  0.15440E+00  0.00000E+00  0.46187E-01  0.16402E+00  0.00000E+00  0.54356E-01  0.15218E+00  0.00000E+00  0.53713E-01  0.15265E+00  0.00000E+00  0.60758E-01  0.15298E+00  0.00000E+00  0.68194E-01
        0.14142E+00  0.00000E+00  0.67420E-01  0.14877E+00  0.00000E+00  0.76246E-01  0.13630E+00  0.00000E+00  0.76114E-01  0.14426E+00  0.00000E+00  0.82938E-01  0.13678E+00  0.00000E+00  0.85707E-01  0.13289E+00  0.00000E+00  0.91572E-01
        0.13385E+00  0.00000E+00  0.96375E-01  0.13092E+00  0.00000E+00  0.10085E+00  0.12810E+00  0.00000E+00  0.10684E+00  0.12910E+00  0.00000E+00  0.11315E+00  0.12800E+00  0.00000E+00  0.11591E+00  0.12804E+00  0.00000E+00  0.12007E+00
        0.24370E+00  0.00000E+00  0.32950E-02  0.25574E+00  0.00000E+00  0.74305E-02  0.24320E+00  0.00000E+00  0.12497E-01  0.26668E+00  0.00000E+00  0.12415E-01  0.25286E+00  0.00000E+00  0.16204E-01  0.23450E+00  0.00000E+00  0.16668E-01
        0.22773E+00  0.00000E+00  0.22272E-01  0.21086E+00  0.00000E+00  0.25783E-01  0.20129E+00  0.00000E+00  0.28490E-01  0.18866E+00  0.00000E+00  0.31082E-01  0.19722E+00  0.00000E+00  0.37210E-01  0.18379E+00  0.00000E+00  0.39013E-01
        0.19477E+00  0.00000E+00  0.45559E-01  0.18173E+00  0.00000E+00  0.47243E-01  0.19090E+00  0.00000E+00  0.53566E-01  0.18045E+00  0.00000E+00  0.55905E-01  0.17134E+00  0.00000E+00  0.59656E-01  0.17742E+00  0.00000E+00  0.66778E-01
        0.16474E+00  0.00000E+00  0.67188E-01  0.17222E+00  0.00000E+00  0.74772E-01  0.16059E+00  0.00000E+00  0.76465E-01  0.16778E+00  0.00000E+00  0.82775E-01  0.16153E+00  0.00000E+00  0.86729E-01  0.15436E+00  0.00000E+00  0.90415E-01
        0.15708E+00  0.00000E+00  0.95775E-01  0.15317E+00  0.00000E+00  0.10001E+00  0.15000E+00  0.00000E+00  0.10576E+00  0.15174E+00  0.00000E+00  0.11181E+00  0.15040E+00  0.00000E+00  0.11475E+00  0.15016E+00  0.00000E+00  0.11878E+00
[...]
<PointData>
      <DataArray type="Float32" Name="Velocity vectors"  NumberOfComponents="3"  format="ascii" >
          0.97477E-01  0.00000E+00 -0.42133E-03  0.65859E-01  0.00000E+00 -0.35575E-02  0.27026E-01  0.00000E+00 -0.17787E-02  0.56502E-01  0.00000E+00 -0.15185E-01  0.98823E-02  0.00000E+00 -0.14927E-01  0.40887E-01  0.00000E+00 -0.18274E-01
         -0.10097E-01  0.00000E+00 -0.38576E-01  0.28491E-01  0.00000E+00 -0.34746E-01 -0.39669E-02  0.00000E+00 -0.49959E-01  0.37723E-01  0.00000E+00 -0.66285E-01 -0.56979E-02  0.00000E+00 -0.75202E-01  0.29788E-01  0.00000E+00 -0.78307E-01
         -0.72906E-02  0.00000E+00 -0.95547E-01  0.26593E-01  0.00000E+00 -0.10333E+00 -0.18752E-01  0.00000E+00 -0.10181E+00  0.30251E-01  0.00000E+00 -0.12240E+00 -0.26716E-01  0.00000E+00 -0.12045E+00  0.30090E-01  0.00000E+00 -0.13754E+00
         -0.55259E-02  0.00000E+00 -0.13020E+00  0.50906E-02  0.00000E+00 -0.12450E+00  0.81259E-04  0.00000E+00 -0.12913E+00  0.59150E-02  0.00000E+00 -0.12831E+00  0.81468E-02  0.00000E+00 -0.12855E+00  0.56072E-02  0.00000E+00 -0.13092E+00
          0.18120E-02  0.00000E+00 -0.13142E+00  0.56066E-02  0.00000E+00 -0.12839E+00  0.92651E-02  0.00000E+00 -0.12959E+00  0.64148E-02  0.00000E+00 -0.13699E+00  0.35472E-02  0.00000E+00 -0.13964E+00  0.33467E-02  0.00000E+00 -0.14044E+00
          0.12053E+00  0.00000E+00 -0.13008E-02  0.82260E-01  0.00000E+00 -0.11957E-01  0.10809E+00  0.00000E+00 -0.10343E-01  0.94665E-01  0.00000E+00 -0.18696E-01  0.75212E-01  0.00000E+00 -0.15120E-01  0.81777E-01  0.00000E+00 -0.19771E-01
          0.36467E-01  0.00000E+00 -0.35786E-01  0.48684E-01  0.00000E+00 -0.41186E-01  0.51983E-01  0.00000E+00 -0.47247E-01  0.67347E-01  0.00000E+00 -0.40187E-01  0.27340E-01  0.00000E+00 -0.59120E-01  0.45682E-01  0.00000E+00 -0.55283E-01
          0.33134E-01  0.00000E+00 -0.67004E-01  0.50505E-01  0.00000E+00 -0.63234E-01  0.35227E-01  0.00000E+00 -0.75752E-01  0.45779E-01  0.00000E+00 -0.67019E-01  0.26814E-01  0.00000E+00 -0.84023E-01  0.42323E-01  0.00000E+00 -0.80206E-01
          0.27846E-02  0.00000E+00 -0.85339E-01  0.51468E-01  0.00000E+00 -0.90138E-01 -0.13697E-01  0.00000E+00 -0.11138E+00  0.47225E-01  0.00000E+00 -0.11401E+00 -0.12126E-01  0.00000E+00 -0.11820E+00  0.33504E-01  0.00000E+00 -0.12125E+00
         -0.40218E-02  0.00000E+00 -0.13020E+00  0.36822E-01  0.00000E+00 -0.13006E+00  0.55295E-02  0.00000E+00 -0.14285E+00  0.24060E-01  0.00000E+00 -0.14175E+00  0.15036E-01  0.00000E+00 -0.14680E+00  0.17586E-01  0.00000E+00 -0.14680E+00
          0.13947E+00  0.00000E+00  0.98693E-05  0.13235E+00  0.00000E+00 -0.63061E-02  0.15225E+00  0.00000E+00 -0.90628E-02  0.14403E+00  0.00000E+00 -0.93424E-02  0.11916E+00  0.00000E+00 -0.17661E-01  0.12806E+00  0.00000E+00 -0.20877E-01
          0.10830E+00  0.00000E+00 -0.24177E-01  0.11475E+00  0.00000E+00 -0.25022E-01  0.83513E-01  0.00000E+00 -0.41825E-01  0.84149E-01  0.00000E+00 -0.38136E-01  0.70710E-01  0.00000E+00 -0.49029E-01  0.72574E-01  0.00000E+00 -0.43740E-01
          0.54571E-01  0.00000E+00 -0.55688E-01  0.65300E-01  0.00000E+00 -0.51119E-01  0.61835E-01  0.00000E+00 -0.60841E-01  0.64210E-01  0.00000E+00 -0.56376E-01  0.54057E-01  0.00000E+00 -0.67400E-01  0.63269E-01  0.00000E+00 -0.63634E-01
          0.38341E-01  0.00000E+00 -0.72178E-01  0.69936E-01  0.00000E+00 -0.71185E-01  0.20039E-01  0.00000E+00 -0.83953E-01  0.78812E-01  0.00000E+00 -0.88018E-01  0.83245E-02  0.00000E+00 -0.11094E+00  0.72082E-01  0.00000E+00 -0.11443E+00
          0.19427E-01  0.00000E+00 -0.13316E+00  0.42145E-01  0.00000E+00 -0.12603E+00  0.24586E-01  0.00000E+00 -0.13117E+00  0.29096E-01  0.00000E+00 -0.13262E+00  0.18732E-01  0.00000E+00 -0.13489E+00  0.23523E-01  0.00000E+00 -0.13564E+00
          0.18437E+00  0.00000E+00 -0.96686E-03  0.15754E+00  0.00000E+00 -0.12741E-02  0.17083E+00  0.00000E+00 -0.96345E-02  0.15696E+00  0.00000E+00 -0.13320E-01  0.14411E+00  0.00000E+00 -0.82758E-02  0.15296E+00  0.00000E+00 -0.16045E-01
          0.13546E+00  0.00000E+00 -0.13456E-01  0.14355E+00  0.00000E+00 -0.20804E-01  0.12289E+00  0.00000E+00 -0.24129E-01  0.12781E+00  0.00000E+00 -0.26823E-01  0.94224E-01  0.00000E+00 -0.43272E-01  0.92213E-01  0.00000E+00 -0.41482E-01
          0.81043E-01  0.00000E+00 -0.46577E-01  0.90855E-01  0.00000E+00 -0.47512E-01  0.78447E-01  0.00000E+00 -0.55902E-01  0.83924E-01  0.00000E+00 -0.56907E-01  0.75007E-01  0.00000E+00 -0.63954E-01  0.82193E-01  0.00000E+00 -0.61215E-01
          0.66405E-01  0.00000E+00 -0.71260E-01  0.88336E-01  0.00000E+00 -0.64872E-01  0.51948E-01  0.00000E+00 -0.83974E-01  0.10155E+00  0.00000E+00 -0.80416E-01  0.42501E-01  0.00000E+00 -0.98066E-01  0.10345E+00  0.00000E+00 -0.10382E+00
          0.61852E-01  0.00000E+00 -0.11347E+00  0.35920E-01  0.00000E+00 -0.11592E+00  0.38744E-01  0.00000E+00 -0.12189E+00  0.29182E-01  0.00000E+00 -0.12223E+00  0.34191E-01  0.00000E+00 -0.12424E+00  0.31399E-01  0.00000E+00 -0.12591E+00
          0.23869E+00  0.00000E+00 -0.46694E-03  0.20775E+00  0.00000E+00 -0.47761E-02  0.20643E+00  0.00000E+00 -0.12082E-01  0.21359E+00  0.00000E+00 -0.68967E-02  0.17664E+00  0.00000E+00 -0.30518E-01  0.18614E+00  0.00000E+00 -0.24139E-01
          0.16724E+00  0.00000E+00 -0.26696E-01  0.17635E+00  0.00000E+00 -0.38686E-01  0.15937E+00  0.00000E+00 -0.30377E-01  0.17258E+00  0.00000E+00 -0.44404E-01  0.14915E+00  0.00000E+00 -0.31386E-01  0.16210E+00  0.00000E+00 -0.45353E-01
          0.11340E+00  0.00000E+00 -0.50617E-01  0.13053E+00  0.00000E+00 -0.58034E-01  0.10886E+00  0.00000E+00 -0.56176E-01  0.11827E+00  0.00000E+00 -0.68783E-01  0.98905E-01  0.00000E+00 -0.68533E-01  0.10722E+00  0.00000E+00 -0.77671E-01
          0.91153E-01  0.00000E+00 -0.78418E-01  0.11080E+00  0.00000E+00 -0.78020E-01  0.82384E-01  0.00000E+00 -0.92712E-01  0.12985E+00  0.00000E+00 -0.89595E-01  0.78146E-01  0.00000E+00 -0.10686E+00  0.11379E+00  0.00000E+00 -0.99878E-01
          0.68758E-01  0.00000E+00 -0.11811E+00  0.59078E-01  0.00000E+00 -0.10823E+00  0.42640E-01  0.00000E+00 -0.11687E+00  0.46490E-01  0.00000E+00 -0.11911E+00  0.39687E-01  0.00000E+00 -0.12073E+00  0.42093E-01  0.00000E+00 -0.12211E+00
          0.25076E+00  0.00000E+00  0.25780E-03  0.24719E+00  0.00000E+00 -0.39038E-02  0.21383E+00  0.00000E+00 -0.15192E-01  0.27125E+00  0.00000E+00 -0.79456E-02  0.22425E+00  0.00000E+00 -0.18090E-01  0.25004E+00  0.00000E+00 -0.21177E-01
          0.22017E+00  0.00000E+00 -0.16740E-01  0.24211E+00  0.00000E+00 -0.26768E-01  0.20627E+00  0.00000E+00 -0.34485E-01  0.21825E+00  0.00000E+00 -0.44898E-01  0.18878E+00  0.00000E+00 -0.49111E-01  0.20316E+00  0.00000E+00 -0.60181E-01
          0.17779E+00  0.00000E+00 -0.55396E-01  0.17381E+00  0.00000E+00 -0.72778E-01  0.15480E+00  0.00000E+00 -0.68429E-01  0.16849E+00  0.00000E+00 -0.75334E-01  0.13699E+00  0.00000E+00 -0.83388E-01  0.14524E+00  0.00000E+00 -0.91618E-01
          0.12665E+00  0.00000E+00 -0.99093E-01  0.13537E+00  0.00000E+00 -0.98403E-01  0.11148E+00  0.00000E+00 -0.11145E+00  0.14400E+00  0.00000E+00 -0.10633E+00  0.10399E+00  0.00000E+00 -0.12369E+00  0.10268E+00  0.00000E+00 -0.11414E+00
          0.94839E-01  0.00000E+00 -0.11617E+00  0.60323E-01  0.00000E+00 -0.13327E+00  0.56540E-01  0.00000E+00 -0.12490E+00  0.55350E-01  0.00000E+00 -0.12850E+00  0.54898E-01  0.00000E+00 -0.13161E+00  0.53765E-01  0.00000E+00 -0.13185E+00
          0.29751E+00  0.00000E+00 -0.16043E-03  0.33288E+00  0.00000E+00 -0.66324E-02  0.26910E+00  0.00000E+00 -0.93234E-02  0.31785E+00  0.00000E+00 -0.18427E-01  0.29823E+00  0.00000E+00 -0.22806E-01  0.30613E+00  0.00000E+00 -0.22199E-01
          0.28413E+00  0.00000E+00 -0.27934E-01  0.26117E+00  0.00000E+00 -0.30536E-01  0.23860E+00  0.00000E+00 -0.34212E-01  0.25597E+00  0.00000E+00 -0.36267E-01  0.23263E+00  0.00000E+00 -0.47034E-01  0.23317E+00  0.00000E+00 -0.46941E-01
          0.22143E+00  0.00000E+00 -0.44227E-01  0.20143E+00  0.00000E+00 -0.72980E-01  0.18200E+00  0.00000E+00 -0.64867E-01  0.16881E+00  0.00000E+00 -0.80923E-01  0.17573E+00  0.00000E+00 -0.78836E-01  0.17801E+00  0.00000E+00 -0.76683E-01
          0.16242E+00  0.00000E+00 -0.10342E+00  0.16001E+00  0.00000E+00 -0.94187E-01  0.13298E+00  0.00000E+00 -0.12087E+00  0.15097E+00  0.00000E+00 -0.10546E+00  0.12727E+00  0.00000E+00 -0.12789E+00  0.83850E-01  0.00000E+00 -0.13758E+00
          0.10513E+00  0.00000E+00 -0.12977E+00  0.89321E-01  0.00000E+00 -0.14187E+00  0.61766E-01  0.00000E+00 -0.14209E+00  0.73653E-01  0.00000E+00 -0.14722E+00  0.66207E-01  0.00000E+00 -0.14772E+00  0.67950E-01  0.00000E+00 -0.14794E+00
          0.34547E+00  0.00000E+00 -0.68473E-03  0.35292E+00  0.00000E+00 -0.66170E-02  0.33818E+00  0.00000E+00 -0.33446E-02  0.35841E+00  0.00000E+00 -0.64011E-02  0.34347E+00  0.00000E+00 -0.14981E-01  0.32168E+00  0.00000E+00 -0.16301E-01
          0.30792E+00  0.00000E+00 -0.24514E-01  0.27751E+00  0.00000E+00 -0.34231E-01  0.26791E+00  0.00000E+00 -0.38041E-01  0.25247E+00  0.00000E+00 -0.35747E-01  0.26191E+00  0.00000E+00 -0.48378E-01  0.24821E+00  0.00000E+00 -0.41050E-01
          0.25360E+00  0.00000E+00 -0.50613E-01  0.22753E+00  0.00000E+00 -0.51464E-01  0.23462E+00  0.00000E+00 -0.66370E-01  0.22535E+00  0.00000E+00 -0.57953E-01  0.19275E+00  0.00000E+00 -0.77205E-01  0.21758E+00  0.00000E+00 -0.80662E-01
          0.18547E+00  0.00000E+00 -0.94573E-01  0.19598E+00  0.00000E+00 -0.97530E-01  0.17426E+00  0.00000E+00 -0.10629E+00  0.19102E+00  0.00000E+00 -0.10053E+00  0.17146E+00  0.00000E+00 -0.11042E+00  0.11772E+00  0.00000E+00 -0.15174E+00
          0.15419E+00  0.00000E+00 -0.13471E+00  0.12348E+00  0.00000E+00 -0.14891E+00  0.91309E-01  0.00000E+00 -0.15691E+00  0.10832E+00  0.00000E+00 -0.16703E+00  0.86107E-01  0.00000E+00 -0.16158E+00  0.86779E-01  0.00000E+00 -0.16533E+00
          0.36136E+00  0.00000E+00 -0.14972E-03  0.37235E+00  0.00000E+00 -0.75534E-02  0.37159E+00  0.00000E+00 -0.12373E-01  0.39372E+00  0.00000E+00 -0.21916E-01  0.36440E+00  0.00000E+00 -0.12181E-01  0.36119E+00  0.00000E+00 -0.10978E-01
          0.34851E+00  0.00000E+00 -0.21756E-01  0.32969E+00  0.00000E+00 -0.20822E-01  0.30731E+00  0.00000E+00 -0.31504E-01  0.28566E+00  0.00000E+00 -0.37607E-01  0.29892E+00  0.00000E+00 -0.45322E-01  0.28224E+00  0.00000E+00 -0.45052E-01
          0.28586E+00  0.00000E+00 -0.52448E-01  0.25684E+00  0.00000E+00 -0.64413E-01  0.27173E+00  0.00000E+00 -0.72227E-01  0.25646E+00  0.00000E+00 -0.69961E-01  0.25288E+00  0.00000E+00 -0.79057E-01  0.24729E+00  0.00000E+00 -0.79692E-01
          0.22459E+00  0.00000E+00 -0.91033E-01  0.23014E+00  0.00000E+00 -0.95233E-01  0.20384E+00  0.00000E+00 -0.10519E+00  0.21926E+00  0.00000E+00 -0.97992E-01  0.20437E+00  0.00000E+00 -0.11192E+00  0.16013E+00  0.00000E+00 -0.13904E+00
          0.18393E+00  0.00000E+00 -0.12356E+00  0.16053E+00  0.00000E+00 -0.13640E+00  0.11764E+00  0.00000E+00 -0.14583E+00  0.13615E+00  0.00000E+00 -0.15531E+00  0.11124E+00  0.00000E+00 -0.15374E+00  0.11189E+00  0.00000E+00 -0.15612E+00
          0.40027E+00  0.00000E+00 -0.84824E-03  0.41298E+00  0.00000E+00 -0.44346E-02  0.45806E+00  0.00000E+00 -0.14917E-01  0.41958E+00  0.00000E+00 -0.11911E-01  0.43303E+00  0.00000E+00 -0.25443E-01  0.40439E+00  0.00000E+00 -0.21131E-01
          0.38272E+00  0.00000E+00 -0.28498E-01  0.37177E+00  0.00000E+00 -0.17231E-01  0.35028E+00  0.00000E+00 -0.22968E-01  0.34013E+00  0.00000E+00 -0.28701E-01  0.33042E+00  0.00000E+00 -0.40452E-01  0.30947E+00  0.00000E+00 -0.53821E-01
          0.30559E+00  0.00000E+00 -0.48698E-01  0.30212E+00  0.00000E+00 -0.55506E-01  0.27847E+00  0.00000E+00 -0.66637E-01  0.28112E+00  0.00000E+00 -0.65165E-01  0.26170E+00  0.00000E+00 -0.71435E-01  0.27611E+00  0.00000E+00 -0.76594E-01
          0.25898E+00  0.00000E+00 -0.80090E-01  0.26665E+00  0.00000E+00 -0.88681E-01  0.23406E+00  0.00000E+00 -0.97397E-01  0.24719E+00  0.00000E+00 -0.91379E-01  0.23391E+00  0.00000E+00 -0.10345E+00  0.18964E+00  0.00000E+00 -0.13232E+00
          0.21935E+00  0.00000E+00 -0.11992E+00  0.19166E+00  0.00000E+00 -0.13002E+00  0.14339E+00  0.00000E+00 -0.14511E+00  0.16247E+00  0.00000E+00 -0.15421E+00  0.13566E+00  0.00000E+00 -0.15337E+00  0.13669E+00  0.00000E+00 -0.15559E+00
          0.43072E+00  0.00000E+00  0.80040E-03  0.48252E+00  0.00000E+00 -0.19266E-02  0.46709E+00  0.00000E+00 -0.30259E-02  0.44436E+00  0.00000E+00 -0.98543E-02  0.45054E+00  0.00000E+00 -0.14382E-01  0.42877E+00  0.00000E+00 -0.18183E-01
          0.42092E+00  0.00000E+00 -0.23263E-01  0.41553E+00  0.00000E+00 -0.30808E-01  0.39341E+00  0.00000E+00 -0.35017E-01  0.38017E+00  0.00000E+00 -0.35107E-01  0.36329E+00  0.00000E+00 -0.28599E-01  0.34709E+00  0.00000E+00 -0.36041E-01
          0.32777E+00  0.00000E+00 -0.38688E-01  0.33289E+00  0.00000E+00 -0.45323E-01  0.31213E+00  0.00000E+00 -0.54263E-01  0.32044E+00  0.00000E+00 -0.59216E-01  0.29569E+00  0.00000E+00 -0.69226E-01  0.30814E+00  0.00000E+00 -0.72108E-01
          0.28720E+00  0.00000E+00 -0.81675E-01  0.29303E+00  0.00000E+00 -0.89430E-01  0.26741E+00  0.00000E+00 -0.97502E-01  0.27730E+00  0.00000E+00 -0.90979E-01  0.26413E+00  0.00000E+00 -0.99481E-01  0.22226E+00  0.00000E+00 -0.12848E+00
          0.25446E+00  0.00000E+00 -0.11520E+00  0.22224E+00  0.00000E+00 -0.12524E+00  0.17393E+00  0.00000E+00 -0.14110E+00  0.19163E+00  0.00000E+00 -0.14904E+00  0.16603E+00  0.00000E+00 -0.15055E+00  0.16667E+00  0.00000E+00 -0.15238E+00
          0.49066E+00  0.00000E+00  0.34921E-03  0.51368E+00  0.00000E+00 -0.40477E-02  0.51085E+00  0.00000E+00 -0.72332E-02  0.48487E+00  0.00000E+00 -0.19587E-01  0.48862E+00  0.00000E+00 -0.17831E-01  0.47382E+00  0.00000E+00 -0.21409E-01
          0.46656E+00  0.00000E+00 -0.23651E-01  0.44598E+00  0.00000E+00 -0.27664E-01  0.43666E+00  0.00000E+00 -0.32379E-01  0.42099E+00  0.00000E+00 -0.35136E-01  0.40954E+00  0.00000E+00 -0.42962E-01  0.39128E+00  0.00000E+00 -0.53638E-01
          0.37877E+00  0.00000E+00 -0.44397E-01  0.37691E+00  0.00000E+00 -0.52489E-01  0.35915E+00  0.00000E+00 -0.54760E-01  0.36446E+00  0.00000E+00 -0.60743E-01  0.33749E+00  0.00000E+00 -0.72913E-01  0.33976E+00  0.00000E+00 -0.75507E-01
          0.32126E+00  0.00000E+00 -0.82349E-01  0.32632E+00  0.00000E+00 -0.89355E-01  0.29809E+00  0.00000E+00 -0.95707E-01  0.31025E+00  0.00000E+00 -0.94095E-01  0.29159E+00  0.00000E+00 -0.99987E-01  0.25817E+00  0.00000E+00 -0.12576E+00
          0.28278E+00  0.00000E+00 -0.11174E+00  0.25090E+00  0.00000E+00 -0.12235E+00  0.19884E+00  0.00000E+00 -0.14217E+00  0.21563E+00  0.00000E+00 -0.14607E+00  0.19534E+00  0.00000E+00 -0.14866E+00  0.19567E+00  0.00000E+00 -0.15062E+00
          0.53208E+00  0.00000E+00 -0.58633E-03  0.55568E+00  0.00000E+00 -0.44187E-02  0.55514E+00  0.00000E+00 -0.75533E-02  0.52954E+00  0.00000E+00 -0.18483E-01  0.53251E+00  0.00000E+00 -0.17867E-01  0.51574E+00  0.00000E+00 -0.21952E-01
          0.50564E+00  0.00000E+00 -0.27103E-01  0.48892E+00  0.00000E+00 -0.32676E-01  0.48068E+00  0.00000E+00 -0.32582E-01  0.46560E+00  0.00000E+00 -0.39156E-01  0.45440E+00  0.00000E+00 -0.40652E-01  0.43394E+00  0.00000E+00 -0.46928E-01
          0.41815E+00  0.00000E+00 -0.45772E-01  0.39587E+00  0.00000E+00 -0.57588E-01  0.39580E+00  0.00000E+00 -0.65211E-01  0.37649E+00  0.00000E+00 -0.67495E-01  0.40758E+00  0.00000E+00 -0.82820E-01  0.37344E+00  0.00000E+00 -0.83810E-01
          0.35370E+00  0.00000E+00 -0.88486E-01  0.35930E+00  0.00000E+00 -0.98532E-01  0.32765E+00  0.00000E+00 -0.10211E+00  0.34024E+00  0.00000E+00 -0.10200E+00  0.32144E+00  0.00000E+00 -0.10528E+00  0.28786E+00  0.00000E+00 -0.12928E+00
          0.31410E+00  0.00000E+00 -0.11601E+00  0.28056E+00  0.00000E+00 -0.12594E+00  0.22702E+00  0.00000E+00 -0.14987E+00  0.24149E+00  0.00000E+00 -0.15044E+00  0.22519E+00  0.00000E+00 -0.15456E+00  0.22457E+00  0.00000E+00 -0.15638E+00
          0.57307E+00  0.00000E+00 -0.66983E-03  0.59437E+00  0.00000E+00 -0.43591E-02  0.59710E+00  0.00000E+00 -0.81656E-02  0.57354E+00  0.00000E+00 -0.16108E-01  0.57695E+00  0.00000E+00 -0.16564E-01  0.55804E+00  0.00000E+00 -0.21758E-01
          0.54964E+00  0.00000E+00 -0.26687E-01  0.53180E+00  0.00000E+00 -0.33887E-01  0.52027E+00  0.00000E+00 -0.34672E-01  0.50683E+00  0.00000E+00 -0.42945E-01  0.49750E+00  0.00000E+00 -0.46167E-01  0.47821E+00  0.00000E+00 -0.45645E-01
          0.46595E+00  0.00000E+00 -0.50964E-01  0.44202E+00  0.00000E+00 -0.59371E-01  0.42612E+00  0.00000E+00 -0.56063E-01  0.40761E+00  0.00000E+00 -0.64783E-01  0.43192E+00  0.00000E+00 -0.74618E-01  0.39945E+00  0.00000E+00 -0.82736E-01
          0.38037E+00  0.00000E+00 -0.85208E-01  0.38725E+00  0.00000E+00 -0.96234E-01  0.35433E+00  0.00000E+00 -0.10700E+00  0.36344E+00  0.00000E+00 -0.10120E+00  0.34820E+00  0.00000E+00 -0.10734E+00  0.31180E+00  0.00000E+00 -0.13404E+00
          0.34193E+00  0.00000E+00 -0.11983E+00  0.30691E+00  0.00000E+00 -0.13044E+00  0.25428E+00  0.00000E+00 -0.15883E+00  0.26774E+00  0.00000E+00 -0.15504E+00  0.25679E+00  0.00000E+00 -0.16019E+00  0.25504E+00  0.00000E+00 -0.16189E+00
          0.61149E+00  0.00000E+00 -0.65681E-03  0.63141E+00  0.00000E+00 -0.41532E-02  0.63672E+00  0.00000E+00 -0.10303E-01  0.61491E+00  0.00000E+00 -0.13423E-01  0.62028E+00  0.00000E+00 -0.15245E-01  0.60015E+00  0.00000E+00 -0.20663E-01
          0.59336E+00  0.00000E+00 -0.24303E-01  0.57588E+00  0.00000E+00 -0.32748E-01  0.56486E+00  0.00000E+00 -0.34420E-01  0.54780E+00  0.00000E+00 -0.43408E-01  0.53873E+00  0.00000E+00 -0.47089E-01  0.52184E+00  0.00000E+00 -0.50461E-01
          0.50942E+00  0.00000E+00 -0.53852E-01  0.49458E+00  0.00000E+00 -0.60959E-01  0.47185E+00  0.00000E+00 -0.60064E-01  0.46102E+00  0.00000E+00 -0.61828E-01  0.42639E+00  0.00000E+00 -0.77891E-01  0.42675E+00  0.00000E+00 -0.73098E-01
          0.40893E+00  0.00000E+00 -0.77958E-01  0.41743E+00  0.00000E+00 -0.84560E-01  0.38392E+00  0.00000E+00 -0.97762E-01  0.39240E+00  0.00000E+00 -0.93715E-01  0.37776E+00  0.00000E+00 -0.10047E+00  0.34056E+00  0.00000E+00 -0.12962E+00
          0.36786E+00  0.00000E+00 -0.11339E+00  0.33421E+00  0.00000E+00 -0.12904E+00  0.28352E+00  0.00000E+00 -0.16239E+00  0.29708E+00  0.00000E+00 -0.15331E+00  0.29231E+00  0.00000E+00 -0.15905E+00  0.28902E+00  0.00000E+00 -0.16082E+00
          0.65070E+00  0.00000E+00 -0.53411E-03  0.66982E+00  0.00000E+00 -0.42751E-02  0.67524E+00  0.00000E+00 -0.13922E-01  0.65460E+00  0.00000E+00 -0.11194E-01  0.66297E+00  0.00000E+00 -0.14924E-01  0.64138E+00  0.00000E+00 -0.19725E-01
          0.63522E+00  0.00000E+00 -0.21388E-01  0.61892E+00  0.00000E+00 -0.31055E-01  0.60844E+00  0.00000E+00 -0.33114E-01  0.59074E+00  0.00000E+00 -0.41463E-01  0.58183E+00  0.00000E+00 -0.46335E-01  0.56348E+00  0.00000E+00 -0.51646E-01
          0.55012E+00  0.00000E+00 -0.55324E-01  0.53511E+00  0.00000E+00 -0.59376E-01  0.51953E+00  0.00000E+00 -0.64939E-01  0.49736E+00  0.00000E+00 -0.68680E-01  0.48379E+00  0.00000E+00 -0.71711E-01  0.44995E+00  0.00000E+00 -0.84254E-01
          0.43764E+00  0.00000E+00 -0.91747E-01  0.44910E+00  0.00000E+00 -0.89264E-01  0.42434E+00  0.00000E+00 -0.10046E+00  0.42935E+00  0.00000E+00 -0.99734E-01  0.41462E+00  0.00000E+00 -0.10314E+00  0.38473E+00  0.00000E+00 -0.12518E+00
          0.40356E+00  0.00000E+00 -0.10805E+00  0.37499E+00  0.00000E+00 -0.12527E+00  0.32681E+00  0.00000E+00 -0.16141E+00  0.33872E+00  0.00000E+00 -0.14773E+00  0.34023E+00  0.00000E+00 -0.15460E+00  0.33466E+00  0.00000E+00 -0.15656E+00
          0.69615E+00  0.00000E+00  0.43459E-03  0.70005E+00  0.00000E+00 -0.37248E-02  0.73363E+00  0.00000E+00 -0.11343E-01  0.69136E+00  0.00000E+00 -0.89456E-02  0.72015E+00  0.00000E+00 -0.20694E-01  0.67829E+00  0.00000E+00 -0.18494E-01