<?xml version="1.0"?>
<VTKFile type="UnstructuredGrid" version="0.1" byte_order="LittleEndian" compressor="vtkZLibDataCompressor">
<UnstructuredGrid>
  <Piece NumberOfPoints="1800"        NumberOfCells="1"      >
    <Points>
      <DataArray type="Float32" NumberOfComponents="3" format="ascii" >
        0.50528E-01  0.00000E+00  0.24921E-02  0.34227E-01  0.00000E+00  0.33233E-02  0.18074E-01  0.00000E+00  0.38203E-02  0.24789E-01  0.00000E+00  0.96408E-02  0.71577E-02  0.00000E+00  0.73203E-02  0.12905E-01  0.00000E+00  0.13700E-01
        0.68780E-02  0.00000E+00  0.18383E-01  0.14482E-01  0.00000E+00  0.23006E-01  0.74790E-02  0.00000E+00  0.27742E-01  0.11141E-01  0.00000E+00  0.33769E-01  0.71622E-02  0.00000E+00  0.39551E-01  0.12070E-01  0.00000E+00  0.44872E-01
        0.74407E-02  0.00000E+00  0.50621E-01  0.13261E-01  0.00000E+00  0.55652E-01  0.81660E-02  0.00000E+00  0.60959E-01  0.14025E-01  0.00000E+00  0.65285E-01  0.11857E-01  0.00000E+00  0.70326E-01  0.13645E-01  0.00000E+00  0.75227E-01
        0.13177E-01  0.00000E+00  0.79709E-01  0.13156E-01  0.00000E+00  0.84185E-01  0.12705E-01  0.00000E+00  0.88672E-01  0.12412E-01  0.00000E+00  0.93393E-01  0.12172E-01  0.00000E+00  0.98126E-01  0.11662E-01  0.00000E+00  0.10265E+00
        0.10749E-01  0.00000E+00  0.10709E+00  0.10149E-01  0.00000E+00  0.11213E+00  0.10559E-01  0.00000E+00  0.11767E+00  0.98899E-02  0.00000E+00  0.12281E+00  0.74309E-02  0.00000E+00  0.12682E+00  0.76771E-02  0.00000E+00  0.13029E+00
        0.66871E-01  0.00000E+00  0.32560E-02  0.42335E-01  0.00000E+00  0.95060E-02  0.58542E-01  0.00000E+00  0.98495E-02  0.50477E-01  0.00000E+00  0.15236E-01  0.32541E-01  0.00000E+00  0.14910E-01  0.41903E-01  0.00000E+00  0.20439E-01
        0.24137E-01  0.00000E+00  0.20101E-01  0.36469E-01  0.00000E+00  0.26653E-01  0.24377E-01  0.00000E+00  0.28796E-01  0.36230E-01  0.00000E+00  0.34153E-01  0.22723E-01  0.00000E+00  0.36705E-01  0.34461E-01  0.00000E+00  0.41759E-01
        0.23018E-01  0.00000E+00  0.45516E-01  0.35269E-01  0.00000E+00  0.49747E-01  0.24112E-01  0.00000E+00  0.54279E-01  0.36486E-01  0.00000E+00  0.57814E-01  0.25519E-01  0.00000E+00  0.63101E-01  0.37141E-01  0.00000E+00  0.66639E-01
        0.28292E-01  0.00000E+00  0.71610E-01  0.35725E-01  0.00000E+00  0.75920E-01  0.31687E-01  0.00000E+00  0.81283E-01  0.32856E-01  0.00000E+00  0.86878E-01  0.31231E-01  0.00000E+00  0.91950E-01  0.31587E-01  0.00000E+00  0.97753E-01
        0.29463E-01  0.00000E+00  0.10310E+00  0.31348E-01  0.00000E+00  0.10807E+00  0.27420E-01  0.00000E+00  0.11361E+00  0.29164E-01  0.00000E+00  0.12062E+00  0.26662E-01  0.00000E+00  0.12377E+00  0.27172E-01  0.00000E+00  0.12787E+00
        0.85781E-01  0.00000E+00  0.32384E-02  0.75412E-01  0.00000E+00  0.88978E-02  0.95583E-01  0.00000E+00  0.87274E-02  0.84321E-01  0.00000E+00  0.13864E-01  0.66540E-01  0.00000E+00  0.15918E-01  0.75774E-01  0.00000E+00  0.20351E-01
        0.57038E-01  0.00000E+00  0.22613E-01  0.67228E-01  0.00000E+00  0.26340E-01  0.49614E-01  0.00000E+00  0.28626E-01  0.61352E-01  0.00000E+00  0.33081E-01  0.48025E-01  0.00000E+00  0.36674E-01  0.59993E-01  0.00000E+00  0.40926E-01
        0.46938E-01  0.00000E+00  0.44701E-01  0.59341E-01  0.00000E+00  0.48821E-01  0.47519E-01  0.00000E+00  0.53051E-01  0.59791E-01  0.00000E+00  0.57129E-01  0.48017E-01  0.00000E+00  0.61680E-01  0.59841E-01  0.00000E+00  0.65991E-01
        0.49191E-01  0.00000E+00  0.70214E-01  0.57752E-01  0.00000E+00  0.75002E-01  0.50584E-01  0.00000E+00  0.79509E-01  0.54299E-01  0.00000E+00  0.85429E-01  0.49732E-01  0.00000E+00  0.89960E-01  0.51604E-01  0.00000E+00  0.95841E-01
        0.48827E-01  0.00000E+00  0.10106E+00  0.48854E-01  0.00000E+00  0.10628E+00  0.47430E-01  0.00000E+00  0.11235E+00  0.47123E-01  0.00000E+00  0.11910E+00  0.45345E-01  0.00000E+00  0.12258E+00  0.45629E-01  0.00000E+00  0.12690E+00
        0.12580E+00  0.00000E+00  0.32552E-02  0.10579E+00  0.00000E+00  0.54410E-02  0.11671E+00  0.00000E+00  0.89636E-02  0.10975E+00  0.00000E+00  0.15530E-01  0.96596E-01  0.00000E+00  0.17536E-01  0.10433E+00  0.00000E+00  0.23182E-01
        0.87302E-01  0.00000E+00  0.23159E-01  0.96143E-01  0.00000E+00  0.29070E-01  0.79122E-01  0.00000E+00  0.29624E-01  0.88832E-01  0.00000E+00  0.34926E-01  0.73350E-01  0.00000E+00  0.36533E-01  0.85326E-01  0.00000E+00  0.42049E-01
        0.72161E-01  0.00000E+00  0.44432E-01  0.84220E-01  0.00000E+00  0.49693E-01  0.71318E-01  0.00000E+00  0.52439E-01  0.83513E-01  0.00000E+00  0.57857E-01  0.71010E-01  0.00000E+00  0.60890E-01  0.82238E-01  0.00000E+00  0.66364E-01
        0.71186E-01  0.00000E+00  0.69649E-01  0.79593E-01  0.00000E+00  0.75468E-01  0.70577E-01  0.00000E+00  0.79008E-01  0.75774E-01  0.00000E+00  0.84991E-01  0.69682E-01  0.00000E+00  0.88908E-01  0.71096E-01  0.00000E+00  0.95074E-01
        0.68981E-01  0.00000E+00  0.10030E+00  0.67254E-01  0.00000E+00  0.10507E+00  0.66767E-01  0.00000E+00  0.11123E+00  0.65486E-01  0.00000E+00  0.11795E+00  0.65959E-01  0.00000E+00  0.12135E+00  0.65281E-01  0.00000E+00  0.12553E+00
        0.15725E+00  0.00000E+00  0.32802E-02  0.14126E+00  0.00000E+00  0.56998E-02  0.13083E+00  0.00000E+00  0.11478E-01  0.14183E+00  0.00000E+00  0.15486E-01  0.12383E+00  0.00000E+00  0.18089E-01  0.13518E+00  0.00000E+00  0.22247E-01
        0.11641E+00  0.00000E+00  0.23804E-01  0.12683E+00  0.00000E+00  0.28035E-01  0.10992E+00  0.00000E+00  0.31482E-01  0.12009E+00  0.00000E+00  0.35466E-01  0.10216E+00  0.00000E+00  0.37635E-01  0.11320E+00  0.00000E+00  0.42211E-01
        0.98137E-01  0.00000E+00  0.44616E-01  0.11024E+00  0.00000E+00  0.49713E-01  0.96519E-01  0.00000E+00  0.52063E-01  0.10795E+00  0.00000E+00  0.57682E-01  0.94828E-01  0.00000E+00  0.60048E-01  0.10478E+00  0.00000E+00  0.66093E-01
        0.93260E-01  0.00000E+00  0.68814E-01  0.10069E+00  0.00000E+00  0.75322E-01  0.91469E-01  0.00000E+00  0.78639E-01  0.95882E-01  0.00000E+00  0.84943E-01  0.90513E-01  0.00000E+00  0.88978E-01  0.90581E-01  0.00000E+00  0.95237E-01
        0.88458E-01  0.00000E+00  0.10016E+00  0.87339E-01  0.00000E+00  0.10512E+00  0.85822E-01  0.00000E+00  0.11109E+00  0.85441E-01  0.00000E+00  0.11772E+00  0.84497E-01  0.00000E+00  0.12092E+00  0.84663E-01  0.00000E+00  0.12517E+00
        0.17836E+00  0.00000E+00  0.31817E-02  0.16787E+00  0.00000E+00  0.79254E-02  0.15179E+00  0.00000E+00  0.11204E-01  0.18085E+00  0.00000E+00  0.12800E-01  0.16117E+00  0.00000E+00  0.15802E-01  0.17219E+00  0.00000E+00  0.17968E-01
        0.15087E+00  0.00000E+00  0.21308E-01  0.15524E+00  0.00000E+00  0.28702E-01  0.14131E+00  0.00000E+00  0.28744E-01  0.14733E+00  0.00000E+00  0.34838E-01  0.13245E+00  0.00000E+00  0.35919E-01  0.13804E+00  0.00000E+00  0.42680E-01
        0.12550E+00  0.00000E+00  0.44287E-01  0.13407E+00  0.00000E+00  0.51419E-01  0.12198E+00  0.00000E+00  0.52355E-01  0.13194E+00  0.00000E+00  0.59639E-01  0.11911E+00  0.00000E+00  0.60318E-01  0.12683E+00  0.00000E+00  0.67240E-01
        0.11481E+00  0.00000E+00  0.69072E-01  0.12124E+00  0.00000E+00  0.76382E-01  0.11125E+00  0.00000E+00  0.79024E-01  0.11658E+00  0.00000E+00  0.85288E-01  0.11094E+00  0.00000E+00  0.89215E-01  0.11009E+00  0.00000E+00  0.95469E-01
        0.10939E+00  0.00000E+00  0.10048E+00  0.10679E+00  0.00000E+00  0.10492E+00  0.10570E+00  0.00000E+00  0.11110E+00  0.10520E+00  0.00000E+00  0.11769E+00  0.10505E+00  0.00000E+00  0.12066E+00  0.10471E+00  0.00000E+00  0.12489E+00
        0.20356E+00  0.00000E+00  0.30999E-02  0.21776E+00  0.00000E+00  0.66838E-02  0.19098E+00  0.00000E+00  0.70704E-02  0.20995E+00  0.00000E+00  0.12158E-01  0.19681E+00  0.00000E+00  0.13839E-01  0.20414E+00  0.00000E+00  0.19337E-01
        0.18875E+00  0.00000E+00  0.20271E-01  0.17969E+00  0.00000E+00  0.24328E-01  0.16558E+00  0.00000E+00  0.24676E-01  0.16640E+00  0.00000E+00  0.32916E-01  0.16177E+00  0.00000E+00  0.40417E-01  0.15202E+00  0.00000E+00  0.42234E-01
        0.16172E+00  0.00000E+00  0.49385E-01  0.14661E+00  0.00000E+00  0.49196E-01  0.15673E+00  0.00000E+00  0.57017E-01  0.14546E+00  0.00000E+00  0.57064E-01  0.14560E+00  0.00000E+00  0.64028E-01  0.14572E+00  0.00000E+00  0.71262E-01
        0.13500E+00  0.00000E+00  0.71778E-01  0.14209E+00  0.00000E+00  0.79941E-01  0.13116E+00  0.00000E+00  0.81252E-01  0.13766E+00  0.00000E+00  0.87491E-01  0.13173E+00  0.00000E+00  0.91241E-01  0.12938E+00  0.00000E+00  0.97258E-01
        0.12958E+00  0.00000E+00  0.10203E+00  0.12751E+00  0.00000E+00  0.10683E+00  0.12552E+00  0.00000E+00  0.11280E+00  0.12607E+00  0.00000E+00  0.11931E+00  0.12522E+00  0.00000E+00  0.12210E+00  0.12519E+00  0.00000E+00  0.12627E+00
        0.22995E+00  0.00000E+00  0.33142E-02  0.24169E+00  0.00000E+00  0.77121E-02  0.22969E+00  0.00000E+00  0.12600E-01  0.25237E+00  0.00000E+00  0.12687E-01  0.23913E+00  0.00000E+00  0.16836E-01  0.22177E+00  0.00000E+00  0.17408E-01
        0.21551E+00  0.00000E+00  0.23319E-01  0.19986E+00  0.00000E+00  0.27096E-01  0.19077E+00  0.00000E+00  0.30166E-01  0.17871E+00  0.00000E+00  0.32625E-01  0.18686E+00  0.00000E+00  0.39233E-01  0.17399E+00  0.00000E+00  0.40789E-01
        0.18474E+00  0.00000E+00  0.47733E-01  0.17267E+00  0.00000E+00  0.49466E-01  0.18146E+00  0.00000E+00  0.56387E-01  0.17141E+00  0.00000E+00  0.58415E-01  0.16375E+00  0.00000E+00  0.62975E-01  0.16850E+00  0.00000E+00  0.70239E-01
        0.15728E+00  0.00000E+00  0.71334E-01  0.16407E+00  0.00000E+00  0.78762E-01  0.15372E+00  0.00000E+00  0.81137E-01  0.15961E+00  0.00000E+00  0.87189E-01  0.15461E+00  0.00000E+00  0.91656E-01  0.14999E+00  0.00000E+00  0.96766E-01
        0.15134E+00  0.00000E+00  0.10158E+00  0.14867E+00  0.00000E+00  0.10635E+00  0.14648E+00  0.00000E+00  0.11227E+00  0.14761E+00  0.00000E+00  0.11865E+00  0.14682E+00  0.00000E+00  0.12144E+00  0.14656E+00  0.00000E+00  0.12559E+00
[...]
<PointData>
      <DataArray type="Float32" Name="Velocity vectors"  NumberOfComponents="3"  format="ascii" >
          0.92362E-01  0.00000E+00 -0.47952E-03  0.61400E-01  0.00000E+00 -0.67862E-02  0.31793E-01  0.00000E+00 -0.24474E-02  0.48745E-01  0.00000E+00 -0.77728E-02  0.44078E-02  0.00000E+00 -0.17636E-01  0.50131E-01  0.00000E+00 -0.23271E-01
         -0.17709E-01  0.00000E+00 -0.44802E-01  0.30594E-01  0.00000E+00 -0.44753E-01 -0.75432E-02  0.00000E+00 -0.57148E-01  0.31757E-01  0.00000E+00 -0.69962E-01 -0.10702E-01  0.00000E+00 -0.78315E-01  0.27480E-01  0.00000E+00 -0.79711E-01
         -0.12665E-01  0.00000E+00 -0.90769E-01  0.24857E-01  0.00000E+00 -0.10025E+00 -0.39183E-01  0.00000E+00 -0.94624E-01  0.28955E-01  0.00000E+00 -0.11697E+00 -0.20539E-01  0.00000E+00 -0.11387E+00  0.19159E-01  0.00000E+00 -0.11360E+00
          0.48478E-02  0.00000E+00 -0.11140E+00  0.81060E-02  0.00000E+00 -0.11128E+00  0.57250E-02  0.00000E+00 -0.11385E+00  0.78469E-02  0.00000E+00 -0.11357E+00  0.95199E-02  0.00000E+00 -0.11454E+00  0.79902E-02  0.00000E+00 -0.11813E+00
          0.51259E-02  0.00000E+00 -0.12008E+00  0.69970E-02  0.00000E+00 -0.11757E+00  0.10413E-01  0.00000E+00 -0.11874E+00  0.62603E-02  0.00000E+00 -0.12603E+00  0.36760E-02  0.00000E+00 -0.12997E+00  0.35523E-02  0.00000E+00 -0.13119E+00
          0.11260E+00  0.00000E+00 -0.18889E-02  0.78187E-01  0.00000E+00 -0.12906E-01  0.99839E-01  0.00000E+00 -0.93185E-02  0.92034E-01  0.00000E+00 -0.17938E-01  0.77722E-01  0.00000E+00 -0.15977E-01  0.75503E-01  0.00000E+00 -0.22340E-01
          0.31400E-01  0.00000E+00 -0.38881E-01  0.38888E-01  0.00000E+00 -0.39325E-01  0.35031E-01  0.00000E+00 -0.46607E-01  0.52706E-01  0.00000E+00 -0.42780E-01  0.19179E-01  0.00000E+00 -0.59097E-01  0.38971E-01  0.00000E+00 -0.57255E-01
          0.20095E-01  0.00000E+00 -0.67450E-01  0.39545E-01  0.00000E+00 -0.64478E-01  0.19307E-01  0.00000E+00 -0.77586E-01  0.34795E-01  0.00000E+00 -0.77881E-01  0.96413E-02  0.00000E+00 -0.80655E-01  0.40884E-01  0.00000E+00 -0.88097E-01
         -0.15141E-01  0.00000E+00 -0.91853E-01  0.53255E-01  0.00000E+00 -0.11105E+00 -0.11549E-01  0.00000E+00 -0.12062E+00  0.32864E-01  0.00000E+00 -0.11313E+00  0.70954E-02  0.00000E+00 -0.12004E+00  0.29345E-01  0.00000E+00 -0.11998E+00
          0.45684E-02  0.00000E+00 -0.12557E+00  0.35958E-01  0.00000E+00 -0.12509E+00  0.76904E-02  0.00000E+00 -0.13390E+00  0.23912E-01  0.00000E+00 -0.13389E+00  0.17040E-01  0.00000E+00 -0.13987E+00  0.19855E-01  0.00000E+00 -0.14047E+00
          0.13362E+00  0.00000E+00 -0.66106E-03  0.12395E+00  0.00000E+00 -0.67656E-02  0.15443E+00  0.00000E+00 -0.13943E-01  0.14300E+00  0.00000E+00 -0.15891E-01  0.11275E+00  0.00000E+00 -0.19697E-01  0.12368E+00  0.00000E+00 -0.26166E-01
          0.10168E+00  0.00000E+00 -0.23045E-01  0.10964E+00  0.00000E+00 -0.29172E-01  0.66653E-01  0.00000E+00 -0.45462E-01  0.70155E-01  0.00000E+00 -0.44137E-01  0.57158E-01  0.00000E+00 -0.52701E-01  0.65202E-01  0.00000E+00 -0.49176E-01
          0.46249E-01  0.00000E+00 -0.59613E-01  0.59929E-01  0.00000E+00 -0.59253E-01  0.50780E-01  0.00000E+00 -0.65433E-01  0.59588E-01  0.00000E+00 -0.67399E-01  0.44085E-01  0.00000E+00 -0.76055E-01  0.65024E-01  0.00000E+00 -0.75202E-01
          0.25228E-01  0.00000E+00 -0.79443E-01  0.77510E-01  0.00000E+00 -0.87849E-01  0.63461E-02  0.00000E+00 -0.10547E+00  0.76184E-01  0.00000E+00 -0.10602E+00  0.52577E-02  0.00000E+00 -0.12482E+00  0.55009E-01  0.00000E+00 -0.12697E+00
          0.22135E-01  0.00000E+00 -0.13773E+00  0.35923E-01  0.00000E+00 -0.13312E+00  0.28276E-01  0.00000E+00 -0.13646E+00  0.31339E-01  0.00000E+00 -0.13804E+00  0.24515E-01  0.00000E+00 -0.14124E+00  0.27847E-01  0.00000E+00 -0.14206E+00
          0.19044E+00  0.00000E+00 -0.12360E-02  0.16474E+00  0.00000E+00 -0.15513E-02  0.18093E+00  0.00000E+00 -0.92387E-02  0.15357E+00  0.00000E+00 -0.19489E-01  0.14385E+00  0.00000E+00 -0.11913E-01  0.15225E+00  0.00000E+00 -0.19261E-01
          0.13286E+00  0.00000E+00 -0.21261E-01  0.13864E+00  0.00000E+00 -0.26708E-01  0.11600E+00  0.00000E+00 -0.32981E-01  0.11649E+00  0.00000E+00 -0.37994E-01  0.82152E-01  0.00000E+00 -0.51715E-01  0.88354E-01  0.00000E+00 -0.49353E-01
          0.75782E-01  0.00000E+00 -0.56262E-01  0.87121E-01  0.00000E+00 -0.59166E-01  0.73710E-01  0.00000E+00 -0.67914E-01  0.83884E-01  0.00000E+00 -0.67351E-01  0.68597E-01  0.00000E+00 -0.76667E-01  0.86241E-01  0.00000E+00 -0.73756E-01
          0.55420E-01  0.00000E+00 -0.86196E-01  0.98236E-01  0.00000E+00 -0.83004E-01  0.36792E-01  0.00000E+00 -0.10101E+00  0.10587E+00  0.00000E+00 -0.10292E+00  0.41181E-01  0.00000E+00 -0.12892E+00  0.83139E-01  0.00000E+00 -0.12136E+00
          0.55222E-01  0.00000E+00 -0.13118E+00  0.40427E-01  0.00000E+00 -0.13645E+00  0.42198E-01  0.00000E+00 -0.13722E+00  0.36203E-01  0.00000E+00 -0.13882E+00  0.39660E-01  0.00000E+00 -0.14288E+00  0.37212E-01  0.00000E+00 -0.14385E+00
          0.24116E+00  0.00000E+00 -0.10357E-02  0.21101E+00  0.00000E+00 -0.60202E-02  0.20785E+00  0.00000E+00 -0.99987E-02  0.21243E+00  0.00000E+00 -0.87805E-02  0.17016E+00  0.00000E+00 -0.30462E-01  0.18024E+00  0.00000E+00 -0.25091E-01
          0.16314E+00  0.00000E+00 -0.28779E-01  0.17381E+00  0.00000E+00 -0.39658E-01  0.15527E+00  0.00000E+00 -0.32496E-01  0.16757E+00  0.00000E+00 -0.46442E-01  0.13548E+00  0.00000E+00 -0.40901E-01  0.14898E+00  0.00000E+00 -0.53265E-01
          0.10750E+00  0.00000E+00 -0.57336E-01  0.12903E+00  0.00000E+00 -0.66968E-01  0.10591E+00  0.00000E+00 -0.69976E-01  0.12154E+00  0.00000E+00 -0.78932E-01  0.97520E-01  0.00000E+00 -0.83727E-01  0.11363E+00  0.00000E+00 -0.87162E-01
          0.85593E-01  0.00000E+00 -0.99027E-01  0.12442E+00  0.00000E+00 -0.95006E-01  0.67271E-01  0.00000E+00 -0.11212E+00  0.13218E+00  0.00000E+00 -0.11094E+00  0.76400E-01  0.00000E+00 -0.13476E+00  0.97632E-01  0.00000E+00 -0.12075E+00
          0.70497E-01  0.00000E+00 -0.13662E+00  0.62637E-01  0.00000E+00 -0.13390E+00  0.50651E-01  0.00000E+00 -0.13667E+00  0.52461E-01  0.00000E+00 -0.13940E+00  0.48493E-01  0.00000E+00 -0.14340E+00  0.50470E-01  0.00000E+00 -0.14450E+00
          0.25454E+00  0.00000E+00 -0.17140E-05  0.24795E+00  0.00000E+00 -0.41965E-02  0.21437E+00  0.00000E+00 -0.14378E-01  0.27322E+00  0.00000E+00 -0.81308E-02  0.22061E+00  0.00000E+00 -0.18809E-01  0.24442E+00  0.00000E+00 -0.28229E-01
          0.21176E+00  0.00000E+00 -0.16306E-01  0.23521E+00  0.00000E+00 -0.25553E-01  0.20291E+00  0.00000E+00 -0.37242E-01  0.20843E+00  0.00000E+00 -0.47438E-01  0.18554E+00  0.00000E+00 -0.53240E-01  0.19466E+00  0.00000E+00 -0.61962E-01
          0.17036E+00  0.00000E+00 -0.63009E-01  0.16654E+00  0.00000E+00 -0.76165E-01  0.14904E+00  0.00000E+00 -0.79046E-01  0.16713E+00  0.00000E+00 -0.82646E-01  0.13603E+00  0.00000E+00 -0.94959E-01  0.15088E+00  0.00000E+00 -0.98245E-01
          0.12365E+00  0.00000E+00 -0.11624E+00  0.15132E+00  0.00000E+00 -0.10663E+00  0.97015E-01  0.00000E+00 -0.12967E+00  0.15185E+00  0.00000E+00 -0.12647E+00  0.10501E+00  0.00000E+00 -0.14902E+00  0.10466E+00  0.00000E+00 -0.13694E+00
          0.10094E+00  0.00000E+00 -0.14290E+00  0.72194E-01  0.00000E+00 -0.15317E+00  0.66702E-01  0.00000E+00 -0.15124E+00  0.65073E-01  0.00000E+00 -0.15282E+00  0.64695E-01  0.00000E+00 -0.15676E+00  0.63596E-01  0.00000E+00 -0.15723E+00
          0.29511E+00  0.00000E+00  0.25047E-03  0.33244E+00  0.00000E+00 -0.74754E-02  0.27057E+00  0.00000E+00 -0.10437E-01  0.31056E+00  0.00000E+00 -0.22360E-01  0.29844E+00  0.00000E+00 -0.22491E-01  0.30157E+00  0.00000E+00 -0.21013E-01
          0.27940E+00  0.00000E+00 -0.28328E-01  0.25279E+00  0.00000E+00 -0.36172E-01  0.23209E+00  0.00000E+00 -0.39850E-01  0.24798E+00  0.00000E+00 -0.42048E-01  0.22391E+00  0.00000E+00 -0.48026E-01  0.22638E+00  0.00000E+00 -0.53503E-01
          0.21844E+00  0.00000E+00 -0.51354E-01  0.18900E+00  0.00000E+00 -0.76726E-01  0.18415E+00  0.00000E+00 -0.68309E-01  0.16804E+00  0.00000E+00 -0.86500E-01  0.17724E+00  0.00000E+00 -0.84767E-01  0.18492E+00  0.00000E+00 -0.76814E-01
          0.15675E+00  0.00000E+00 -0.11525E+00  0.17269E+00  0.00000E+00 -0.92398E-01  0.12197E+00  0.00000E+00 -0.13622E+00  0.17666E+00  0.00000E+00 -0.12550E+00  0.12900E+00  0.00000E+00 -0.14949E+00  0.98612E-01  0.00000E+00 -0.14746E+00
          0.11222E+00  0.00000E+00 -0.15379E+00  0.87689E-01  0.00000E+00 -0.15652E+00  0.71291E-01  0.00000E+00 -0.15783E+00  0.80858E-01  0.00000E+00 -0.16239E+00  0.75146E-01  0.00000E+00 -0.16313E+00  0.76719E-01  0.00000E+00 -0.16393E+00
          0.34123E+00  0.00000E+00 -0.21903E-03  0.34879E+00  0.00000E+00 -0.72582E-02  0.33636E+00  0.00000E+00 -0.16084E-02  0.35592E+00  0.00000E+00 -0.70365E-02  0.34198E+00  0.00000E+00 -0.16667E-01  0.31456E+00  0.00000E+00 -0.19969E-01
          0.30211E+00  0.00000E+00 -0.27400E-01  0.27244E+00  0.00000E+00 -0.30617E-01  0.25704E+00  0.00000E+00 -0.45938E-01  0.24420E+00  0.00000E+00 -0.41542E-01  0.25609E+00  0.00000E+00 -0.52551E-01  0.24163E+00  0.00000E+00 -0.48150E-01
          0.24721E+00  0.00000E+00 -0.57716E-01  0.22520E+00  0.00000E+00 -0.60113E-01  0.23718E+00  0.00000E+00 -0.74366E-01  0.22663E+00  0.00000E+00 -0.67646E-01  0.18711E+00  0.00000E+00 -0.88923E-01  0.22746E+00  0.00000E+00 -0.91023E-01
          0.18607E+00  0.00000E+00 -0.11269E+00  0.21093E+00  0.00000E+00 -0.10076E+00  0.16739E+00  0.00000E+00 -0.12722E+00  0.21631E+00  0.00000E+00 -0.12359E+00  0.17631E+00  0.00000E+00 -0.13597E+00  0.10946E+00  0.00000E+00 -0.15967E+00
          0.13800E+00  0.00000E+00 -0.15745E+00  0.10642E+00  0.00000E+00 -0.16536E+00  0.88925E-01  0.00000E+00 -0.16688E+00  0.10233E+00  0.00000E+00 -0.17361E+00  0.94729E-01  0.00000E+00 -0.17235E+00  0.95297E-01  0.00000E+00 -0.17429E+00
          0.35774E+00  0.00000E+00  0.69072E-04  0.36942E+00  0.00000E+00 -0.86931E-02  0.36730E+00  0.00000E+00 -0.88159E-02  0.39303E+00  0.00000E+00 -0.25477E-01  0.35872E+00  0.00000E+00 -0.12358E-01  0.35721E+00  0.00000E+00 -0.10845E-01
          0.34095E+00  0.00000E+00 -0.23168E-01  0.32406E+00  0.00000E+00 -0.23665E-01  0.29777E+00  0.00000E+00 -0.34662E-01  0.27988E+00  0.00000E+00 -0.39738E-01  0.29711E+00  0.00000E+00 -0.46650E-01  0.27528E+00  0.00000E+00 -0.48893E-01
          0.28370E+00  0.00000E+00 -0.54099E-01  0.25282E+00  0.00000E+00 -0.75047E-01  0.26876E+00  0.00000E+00 -0.82083E-01  0.26244E+00  0.00000E+00 -0.76158E-01  0.24746E+00  0.00000E+00 -0.85621E-01  0.25403E+00  0.00000E+00 -0.88906E-01
          0.22280E+00  0.00000E+00 -0.11244E+00  0.24327E+00  0.00000E+00 -0.97180E-01  0.20047E+00  0.00000E+00 -0.12737E+00  0.24309E+00  0.00000E+00 -0.11726E+00  0.20217E+00  0.00000E+00 -0.13777E+00  0.14144E+00  0.00000E+00 -0.15273E+00
          0.16806E+00  0.00000E+00 -0.14750E+00  0.13677E+00  0.00000E+00 -0.15763E+00  0.11361E+00  0.00000E+00 -0.16036E+00  0.12799E+00  0.00000E+00 -0.16831E+00  0.11527E+00  0.00000E+00 -0.16672E+00  0.11625E+00  0.00000E+00 -0.16941E+00
          0.39141E+00  0.00000E+00 -0.86803E-03  0.40342E+00  0.00000E+00 -0.47879E-02  0.45282E+00  0.00000E+00 -0.17550E-01  0.41719E+00  0.00000E+00 -0.14850E-01  0.42752E+00  0.00000E+00 -0.27799E-01  0.40376E+00  0.00000E+00 -0.24115E-01
          0.37916E+00  0.00000E+00 -0.31661E-01  0.36911E+00  0.00000E+00 -0.16064E-01  0.34618E+00  0.00000E+00 -0.26969E-01  0.33560E+00  0.00000E+00 -0.30282E-01  0.32266E+00  0.00000E+00 -0.51744E-01  0.30756E+00  0.00000E+00 -0.58843E-01
          0.30436E+00  0.00000E+00 -0.53850E-01  0.30400E+00  0.00000E+00 -0.61858E-01  0.27350E+00  0.00000E+00 -0.74083E-01  0.28742E+00  0.00000E+00 -0.69068E-01  0.26208E+00  0.00000E+00 -0.80152E-01  0.28471E+00  0.00000E+00 -0.83243E-01
          0.25996E+00  0.00000E+00 -0.96186E-01  0.27904E+00  0.00000E+00 -0.89104E-01  0.23154E+00  0.00000E+00 -0.11470E+00  0.26849E+00  0.00000E+00 -0.10562E+00  0.22845E+00  0.00000E+00 -0.12650E+00  0.16474E+00  0.00000E+00 -0.14595E+00
          0.19275E+00  0.00000E+00 -0.13958E+00  0.16508E+00  0.00000E+00 -0.14695E+00  0.13570E+00  0.00000E+00 -0.15286E+00  0.15244E+00  0.00000E+00 -0.16101E+00  0.13757E+00  0.00000E+00 -0.15937E+00  0.13839E+00  0.00000E+00 -0.16236E+00
          0.42314E+00  0.00000E+00  0.59905E-03  0.47335E+00  0.00000E+00 -0.38941E-02  0.45717E+00  0.00000E+00 -0.19570E-02  0.43892E+00  0.00000E+00 -0.62356E-02  0.44176E+00  0.00000E+00 -0.13705E-01  0.42025E+00  0.00000E+00 -0.15016E-01
          0.41529E+00  0.00000E+00 -0.24281E-01  0.41235E+00  0.00000E+00 -0.31944E-01  0.39265E+00  0.00000E+00 -0.41312E-01  0.38317E+00  0.00000E+00 -0.39136E-01  0.36313E+00  0.00000E+00 -0.34044E-01  0.34523E+00  0.00000E+00 -0.42518E-01
          0.32448E+00  0.00000E+00 -0.43982E-01  0.33642E+00  0.00000E+00 -0.51908E-01  0.31247E+00  0.00000E+00 -0.64883E-01  0.32937E+00  0.00000E+00 -0.64834E-01  0.29517E+00  0.00000E+00 -0.82630E-01  0.31516E+00  0.00000E+00 -0.78435E-01
          0.28936E+00  0.00000E+00 -0.98386E-01  0.30420E+00  0.00000E+00 -0.91876E-01  0.26441E+00  0.00000E+00 -0.11398E+00  0.29510E+00  0.00000E+00 -0.10134E+00  0.25666E+00  0.00000E+00 -0.12110E+00  0.19176E+00  0.00000E+00 -0.14480E+00
          0.22243E+00  0.00000E+00 -0.13285E+00  0.19279E+00  0.00000E+00 -0.14351E+00  0.16115E+00  0.00000E+00 -0.14972E+00  0.17760E+00  0.00000E+00 -0.15775E+00  0.16057E+00  0.00000E+00 -0.15688E+00  0.16119E+00  0.00000E+00 -0.15982E+00
          0.48328E+00  0.00000E+00  0.26215E-03  0.50845E+00  0.00000E+00 -0.50378E-02  0.49756E+00  0.00000E+00 -0.50708E-02  0.46837E+00  0.00000E+00 -0.23634E-01  0.47109E+00  0.00000E+00 -0.21724E-01  0.46169E+00  0.00000E+00 -0.20392E-01
          0.45637E+00  0.00000E+00 -0.21629E-01  0.44036E+00  0.00000E+00 -0.26045E-01  0.43253E+00  0.00000E+00 -0.31092E-01  0.42027E+00  0.00000E+00 -0.35304E-01  0.40977E+00  0.00000E+00 -0.47373E-01  0.39175E+00  0.00000E+00 -0.59743E-01
          0.37833E+00  0.00000E+00 -0.48021E-01  0.37488E+00  0.00000E+00 -0.59627E-01  0.35859E+00  0.00000E+00 -0.66346E-01  0.37238E+00  0.00000E+00 -0.64072E-01  0.33391E+00  0.00000E+00 -0.88259E-01  0.34296E+00  0.00000E+00 -0.82160E-01
          0.31844E+00  0.00000E+00 -0.99206E-01  0.33281E+00  0.00000E+00 -0.93395E-01  0.29460E+00  0.00000E+00 -0.11213E+00  0.32372E+00  0.00000E+00 -0.10151E+00  0.28375E+00  0.00000E+00 -0.11809E+00  0.22296E+00  0.00000E+00 -0.14379E+00
          0.24884E+00  0.00000E+00 -0.12826E+00  0.22089E+00  0.00000E+00 -0.14044E+00  0.18385E+00  0.00000E+00 -0.14814E+00  0.20020E+00  0.00000E+00 -0.15539E+00  0.18259E+00  0.00000E+00 -0.15541E+00  0.18272E+00  0.00000E+00 -0.15838E+00
          0.52752E+00  0.00000E+00 -0.55336E-03  0.54893E+00  0.00000E+00 -0.47169E-02  0.53925E+00  0.00000E+00 -0.59495E-02  0.51147E+00  0.00000E+00 -0.21641E-01  0.51263E+00  0.00000E+00 -0.19779E-01  0.49893E+00  0.00000E+00 -0.21125E-01
          0.49071E+00  0.00000E+00 -0.29030E-01  0.47971E+00  0.00000E+00 -0.34954E-01  0.47367E+00  0.00000E+00 -0.33699E-01  0.45763E+00  0.00000E+00 -0.37889E-01  0.44702E+00  0.00000E+00 -0.37550E-01  0.42989E+00  0.00000E+00 -0.43917E-01
          0.41625E+00  0.00000E+00 -0.46756E-01  0.39165E+00  0.00000E+00 -0.58040E-01  0.39584E+00  0.00000E+00 -0.73579E-01  0.37051E+00  0.00000E+00 -0.75693E-01  0.41216E+00  0.00000E+00 -0.83354E-01  0.36523E+00  0.00000E+00 -0.89475E-01
          0.34794E+00  0.00000E+00 -0.10559E+00  0.35839E+00  0.00000E+00 -0.10120E+00  0.31879E+00  0.00000E+00 -0.11416E+00  0.34451E+00  0.00000E+00 -0.10535E+00  0.30939E+00  0.00000E+00 -0.12134E+00  0.24809E+00  0.00000E+00 -0.14669E+00
          0.27611E+00  0.00000E+00 -0.13074E+00  0.25016E+00  0.00000E+00 -0.14316E+00  0.20823E+00  0.00000E+00 -0.15258E+00  0.22367E+00  0.00000E+00 -0.15929E+00  0.20491E+00  0.00000E+00 -0.16021E+00  0.20457E+00  0.00000E+00 -0.16290E+00
          0.56528E+00  0.00000E+00 -0.44426E-03  0.58406E+00  0.00000E+00 -0.44740E-02  0.58008E+00  0.00000E+00 -0.71985E-02  0.55452E+00  0.00000E+00 -0.18554E-01  0.55566E+00  0.00000E+00 -0.18481E-01  0.53767E+00  0.00000E+00 -0.21457E-01
          0.53115E+00  0.00000E+00 -0.27870E-01  0.51745E+00  0.00000E+00 -0.36337E-01  0.50718E+00  0.00000E+00 -0.36207E-01  0.49702E+00  0.00000E+00 -0.44005E-01  0.48986E+00  0.00000E+00 -0.45388E-01  0.47275E+00  0.00000E+00 -0.46156E-01
          0.46196E+00  0.00000E+00 -0.49962E-01  0.43429E+00  0.00000E+00 -0.57071E-01  0.42195E+00  0.00000E+00 -0.56392E-01  0.39672E+00  0.00000E+00 -0.68238E-01  0.43269E+00  0.00000E+00 -0.74796E-01  0.38865E+00  0.00000E+00 -0.83906E-01
          0.36889E+00  0.00000E+00 -0.93303E-01  0.38034E+00  0.00000E+00 -0.93745E-01  0.33693E+00  0.00000E+00 -0.11100E+00  0.36038E+00  0.00000E+00 -0.98577E-01  0.33183E+00  0.00000E+00 -0.11537E+00  0.26920E+00  0.00000E+00 -0.14751E+00
          0.30175E+00  0.00000E+00 -0.12946E+00  0.27569E+00  0.00000E+00 -0.14121E+00  0.22986E+00  0.00000E+00 -0.15408E+00  0.24565E+00  0.00000E+00 -0.16065E+00  0.22569E+00  0.00000E+00 -0.16165E+00  0.22542E+00  0.00000E+00 -0.16409E+00
          0.59990E+00  0.00000E+00 -0.43784E-03  0.61865E+00  0.00000E+00 -0.46057E-02  0.62038E+00  0.00000E+00 -0.10034E-01  0.59591E+00  0.00000E+00 -0.15661E-01  0.59942E+00  0.00000E+00 -0.18454E-01  0.57839E+00  0.00000E+00 -0.21197E-01
          0.57283E+00  0.00000E+00 -0.25805E-01  0.55847E+00  0.00000E+00 -0.36253E-01  0.54829E+00  0.00000E+00 -0.36600E-01  0.53269E+00  0.00000E+00 -0.44930E-01  0.52485E+00  0.00000E+00 -0.47155E-01  0.51057E+00  0.00000E+00 -0.50901E-01
          0.49995E+00  0.00000E+00 -0.51917E-01  0.48688E+00  0.00000E+00 -0.64124E-01  0.46292E+00  0.00000E+00 -0.58089E-01  0.45583E+00  0.00000E+00 -0.67022E-01  0.41645E+00  0.00000E+00 -0.79511E-01  0.41598E+00  0.00000E+00 -0.66234E-01
          0.39278E+00  0.00000E+00 -0.81564E-01  0.40745E+00  0.00000E+00 -0.81584E-01  0.36201E+00  0.00000E+00 -0.99080E-01  0.38460E+00  0.00000E+00 -0.88409E-01  0.35879E+00  0.00000E+00 -0.10255E+00  0.29876E+00  0.00000E+00 -0.14172E+00
          0.33401E+00  0.00000E+00 -0.12089E+00  0.30216E+00  0.00000E+00 -0.13314E+00  0.25493E+00  0.00000E+00 -0.14909E+00  0.27020E+00  0.00000E+00 -0.15626E+00  0.24976E+00  0.00000E+00 -0.15750E+00  0.24949E+00  0.00000E+00 -0.16008E+00
          0.63828E+00  0.00000E+00 -0.54170E-03  0.65767E+00  0.00000E+00 -0.52458E-02  0.66042E+00  0.00000E+00 -0.13886E-01  0.63650E+00  0.00000E+00 -0.13177E-01  0.64419E+00  0.00000E+00 -0.19843E-01  0.62009E+00  0.00000E+00 -0.21172E-01
          0.61407E+00  0.00000E+00 -0.23912E-01  0.60069E+00  0.00000E+00 -0.35575E-01  0.59048E+00  0.00000E+00 -0.36226E-01  0.57268E+00  0.00000E+00 -0.44511E-01  0.56440E+00  0.00000E+00 -0.47766E-01  0.54775E+00  0.00000E+00 -0.53719E-01
          0.53563E+00  0.00000E+00 -0.56160E-01  0.52076E+00  0.00000E+00 -0.60954E-01  0.50623E+00  0.00000E+00 -0.64511E-01  0.48528E+00  0.00000E+00 -0.66257E-01  0.46692E+00  0.00000E+00 -0.74415E-01  0.43325E+00  0.00000E+00 -0.78651E-01
          0.41832E+00  0.00000E+00 -0.96544E-01  0.43622E+00  0.00000E+00 -0.90850E-01  0.40003E+00  0.00000E+00 -0.10415E+00  0.41860E+00  0.00000E+00 -0.95287E-01  0.39360E+00  0.00000E+00 -0.10457E+00  0.34382E+00  0.00000E+00 -0.13947E+00
          0.37344E+00  0.00000E+00 -0.11721E+00  0.33989E+00  0.00000E+00 -0.13109E+00  0.28850E+00  0.00000E+00 -0.14947E+00  0.30187E+00  0.00000E+00 -0.15435E+00  0.28444E+00  0.00000E+00 -0.15779E+00  0.28315E+00  0.00000E+00 -0.16059E+00
          0.68623E+00  0.00000E+00  0.34279E-03  0.69012E+00  0.00000E+00 -0.23479E-02  0.71854E+00  0.00000E+00 -0.92782E-02  0.67212E+00  0.00000E+00 -0.95341E-02  0.70032E+00  0.00000E+00 -0.25459E-01  0.65848E+00  0.00000E+00 -0.19121E-01