<?xml version="1.0"?>
<VTKFile type="UnstructuredGrid" version="0.1" byte_order="LittleEndian" compressor="vtkZLibDataCompressor">
<UnstructuredGrid>
  <Piece NumberOfPoints="1800"        NumberOfCells="1"      >
    <Points>
      <DataArray type="Float32" NumberOfComponents="3" format="ascii" >
        0.46953E-01  0.00000E+00  0.24933E-02  0.31754E-01  0.00000E+00  0.36290E-02  0.16477E-01  0.00000E+00  0.39205E-02  0.22985E-01  0.00000E+00  0.98029E-02  0.69662E-02  0.00000E+00  0.82558E-02  0.10907E-01  0.00000E+00  0.14855E-01
        0.76135E-02  0.00000E+00  0.20180E-01  0.13045E-01  0.00000E+00  0.25032E-01  0.77912E-02  0.00000E+00  0.30253E-01  0.10011E-01  0.00000E+00  0.36637E-01  0.75984E-02  0.00000E+00  0.42699E-01  0.11072E-01  0.00000E+00  0.48177E-01
        0.81230E-02  0.00000E+00  0.54105E-01  0.12256E-01  0.00000E+00  0.59479E-01  0.98999E-02  0.00000E+00  0.64647E-01  0.12973E-01  0.00000E+00  0.69650E-01  0.12341E-01  0.00000E+00  0.74485E-01  0.12980E-01  0.00000E+00  0.79257E-01
        0.12797E-01  0.00000E+00  0.83784E-01  0.12669E-01  0.00000E+00  0.88323E-01  0.12290E-01  0.00000E+00  0.92884E-01  0.11966E-01  0.00000E+00  0.97605E-01  0.11680E-01  0.00000E+00  0.10240E+00  0.11236E-01  0.00000E+00  0.10709E+00
        0.10443E-01  0.00000E+00  0.11165E+00  0.97983E-02  0.00000E+00  0.11663E+00  0.10075E-01  0.00000E+00  0.12222E+00  0.96239E-02  0.00000E+00  0.12766E+00  0.72695E-02  0.00000E+00  0.13188E+00  0.75173E-02  0.00000E+00  0.13542E+00
        0.62480E-01  0.00000E+00  0.33486E-02  0.39231E-01  0.00000E+00  0.10014E-01  0.54671E-01  0.00000E+00  0.10231E-01  0.46875E-01  0.00000E+00  0.15887E-01  0.29413E-01  0.00000E+00  0.15561E-01  0.39027E-01  0.00000E+00  0.21378E-01
        0.23071E-01  0.00000E+00  0.21683E-01  0.34998E-01  0.00000E+00  0.28153E-01  0.23181E-01  0.00000E+00  0.30574E-01  0.34350E-01  0.00000E+00  0.35900E-01  0.22074E-01  0.00000E+00  0.39055E-01  0.33087E-01  0.00000E+00  0.44045E-01
        0.22424E-01  0.00000E+00  0.48140E-01  0.33940E-01  0.00000E+00  0.52311E-01  0.23595E-01  0.00000E+00  0.57357E-01  0.35267E-01  0.00000E+00  0.61057E-01  0.25540E-01  0.00000E+00  0.66316E-01  0.35319E-01  0.00000E+00  0.70244E-01
        0.29201E-01  0.00000E+00  0.75514E-01  0.33558E-01  0.00000E+00  0.80755E-01  0.31701E-01  0.00000E+00  0.86086E-01  0.31676E-01  0.00000E+00  0.91543E-01  0.30661E-01  0.00000E+00  0.96911E-01  0.30414E-01  0.00000E+00  0.10267E+00
        0.29011E-01  0.00000E+00  0.10821E+00  0.29886E-01  0.00000E+00  0.11317E+00  0.26934E-01  0.00000E+00  0.11898E+00  0.28123E-01  0.00000E+00  0.12601E+00  0.25864E-01  0.00000E+00  0.12943E+00  0.26276E-01  0.00000E+00  0.13355E+00
        0.80578E-01  0.00000E+00  0.32757E-02  0.70598E-01  0.00000E+00  0.91565E-02  0.89399E-01  0.00000E+00  0.93893E-02  0.78646E-01  0.00000E+00  0.14624E-01  0.62143E-01  0.00000E+00  0.16745E-01  0.70928E-01  0.00000E+00  0.21474E-01
        0.53131E-01  0.00000E+00  0.23555E-01  0.63059E-01  0.00000E+00  0.27636E-01  0.47253E-01  0.00000E+00  0.30470E-01  0.58749E-01  0.00000E+00  0.34949E-01  0.45982E-01  0.00000E+00  0.38773E-01  0.57544E-01  0.00000E+00  0.43052E-01
        0.45237E-01  0.00000E+00  0.47118E-01  0.57058E-01  0.00000E+00  0.51351E-01  0.45693E-01  0.00000E+00  0.55762E-01  0.57427E-01  0.00000E+00  0.60131E-01  0.46528E-01  0.00000E+00  0.64832E-01  0.56985E-01  0.00000E+00  0.69308E-01
        0.48483E-01  0.00000E+00  0.73764E-01  0.54320E-01  0.00000E+00  0.79049E-01  0.50236E-01  0.00000E+00  0.84267E-01  0.51420E-01  0.00000E+00  0.89974E-01  0.49091E-01  0.00000E+00  0.95161E-01  0.49482E-01  0.00000E+00  0.10108E+00
        0.47729E-01  0.00000E+00  0.10659E+00  0.47360E-01  0.00000E+00  0.11177E+00  0.46179E-01  0.00000E+00  0.11790E+00  0.45771E-01  0.00000E+00  0.12472E+00  0.44224E-01  0.00000E+00  0.12836E+00  0.44390E-01  0.00000E+00  0.13271E+00
        0.11814E+00  0.00000E+00  0.33068E-02  0.99114E-01  0.00000E+00  0.55247E-02  0.10937E+00  0.00000E+00  0.93457E-02  0.10370E+00  0.00000E+00  0.16397E-01  0.90854E-01  0.00000E+00  0.18092E-01  0.98301E-01  0.00000E+00  0.24014E-01
        0.82074E-01  0.00000E+00  0.24170E-01  0.90737E-01  0.00000E+00  0.30278E-01  0.74705E-01  0.00000E+00  0.31128E-01  0.84469E-01  0.00000E+00  0.36667E-01  0.70288E-01  0.00000E+00  0.38717E-01  0.81837E-01  0.00000E+00  0.44236E-01
        0.69218E-01  0.00000E+00  0.46898E-01  0.80764E-01  0.00000E+00  0.52296E-01  0.68425E-01  0.00000E+00  0.55372E-01  0.80062E-01  0.00000E+00  0.60843E-01  0.68360E-01  0.00000E+00  0.64259E-01  0.78492E-01  0.00000E+00  0.69591E-01
        0.69201E-01  0.00000E+00  0.73387E-01  0.75253E-01  0.00000E+00  0.79250E-01  0.69210E-01  0.00000E+00  0.83638E-01  0.71545E-01  0.00000E+00  0.89541E-01  0.68061E-01  0.00000E+00  0.94440E-01  0.68219E-01  0.00000E+00  0.10034E+00
        0.66841E-01  0.00000E+00  0.10589E+00  0.65543E-01  0.00000E+00  0.11082E+00  0.64983E-01  0.00000E+00  0.11697E+00  0.63884E-01  0.00000E+00  0.12378E+00  0.64229E-01  0.00000E+00  0.12735E+00  0.63635E-01  0.00000E+00  0.13157E+00
        0.14758E+00  0.00000E+00  0.33316E-02  0.13274E+00  0.00000E+00  0.59685E-02  0.12255E+00  0.00000E+00  0.11880E-01  0.13340E+00  0.00000E+00  0.15912E-01  0.11715E+00  0.00000E+00  0.19279E-01  0.12807E+00  0.00000E+00  0.23289E-01
        0.10996E+00  0.00000E+00  0.25017E-01  0.11993E+00  0.00000E+00  0.29660E-01  0.10380E+00  0.00000E+00  0.32839E-01  0.11350E+00  0.00000E+00  0.37386E-01  0.97015E-01  0.00000E+00  0.39485E-01  0.10747E+00  0.00000E+00  0.44527E-01
        0.93866E-01  0.00000E+00  0.47114E-01  0.10507E+00  0.00000E+00  0.52592E-01  0.92282E-01  0.00000E+00  0.55132E-01  0.10298E+00  0.00000E+00  0.61087E-01  0.90942E-01  0.00000E+00  0.63791E-01  0.99933E-01  0.00000E+00  0.69823E-01
        0.90069E-01  0.00000E+00  0.73109E-01  0.95307E-01  0.00000E+00  0.79527E-01  0.88988E-01  0.00000E+00  0.83699E-01  0.90752E-01  0.00000E+00  0.89730E-01  0.87624E-01  0.00000E+00  0.94687E-01  0.87105E-01  0.00000E+00  0.10051E+00
        0.85733E-01  0.00000E+00  0.10593E+00  0.84837E-01  0.00000E+00  0.11089E+00  0.83675E-01  0.00000E+00  0.11690E+00  0.83226E-01  0.00000E+00  0.12363E+00  0.82405E-01  0.00000E+00  0.12703E+00  0.82498E-01  0.00000E+00  0.13131E+00
        0.16812E+00  0.00000E+00  0.31936E-02  0.15798E+00  0.00000E+00  0.81259E-02  0.14320E+00  0.00000E+00  0.11755E-01  0.16990E+00  0.00000E+00  0.13196E-01  0.15237E+00  0.00000E+00  0.16527E-01  0.16248E+00  0.00000E+00  0.19245E-01
        0.14260E+00  0.00000E+00  0.21986E-01  0.14601E+00  0.00000E+00  0.29739E-01  0.13331E+00  0.00000E+00  0.30297E-01  0.13916E+00  0.00000E+00  0.36813E-01  0.12510E+00  0.00000E+00  0.38101E-01  0.13043E+00  0.00000E+00  0.45192E-01
        0.11882E+00  0.00000E+00  0.47011E-01  0.12743E+00  0.00000E+00  0.54525E-01  0.11603E+00  0.00000E+00  0.55744E-01  0.12522E+00  0.00000E+00  0.63080E-01  0.11365E+00  0.00000E+00  0.64433E-01  0.12060E+00  0.00000E+00  0.71360E-01
        0.11015E+00  0.00000E+00  0.74000E-01  0.11496E+00  0.00000E+00  0.80922E-01  0.10776E+00  0.00000E+00  0.84618E-01  0.11062E+00  0.00000E+00  0.90662E-01  0.10696E+00  0.00000E+00  0.95491E-01  0.10610E+00  0.00000E+00  0.10130E+00
        0.10548E+00  0.00000E+00  0.10665E+00  0.10378E+00  0.00000E+00  0.11138E+00  0.10289E+00  0.00000E+00  0.11750E+00  0.10245E+00  0.00000E+00  0.12418E+00  0.10231E+00  0.00000E+00  0.12733E+00  0.10201E+00  0.00000E+00  0.13158E+00
        0.19170E+00  0.00000E+00  0.30816E-02  0.20445E+00  0.00000E+00  0.69854E-02  0.18006E+00  0.00000E+00  0.75136E-02  0.19771E+00  0.00000E+00  0.13123E-01  0.18491E+00  0.00000E+00  0.14715E-01  0.19218E+00  0.00000E+00  0.20174E-01
        0.17770E+00  0.00000E+00  0.21429E-01  0.16975E+00  0.00000E+00  0.25933E-01  0.15646E+00  0.00000E+00  0.26413E-01  0.15666E+00  0.00000E+00  0.34716E-01  0.15296E+00  0.00000E+00  0.42378E-01  0.14315E+00  0.00000E+00  0.44521E-01
        0.15305E+00  0.00000E+00  0.51631E-01  0.13915E+00  0.00000E+00  0.52328E-01  0.14915E+00  0.00000E+00  0.59849E-01  0.13866E+00  0.00000E+00  0.60689E-01  0.13845E+00  0.00000E+00  0.67612E-01  0.13821E+00  0.00000E+00  0.74357E-01
        0.12916E+00  0.00000E+00  0.76658E-01  0.13505E+00  0.00000E+00  0.83898E-01  0.12673E+00  0.00000E+00  0.86956E-01  0.13067E+00  0.00000E+00  0.92911E-01  0.12668E+00  0.00000E+00  0.97559E-01  0.12519E+00  0.00000E+00  0.10335E+00
        0.12505E+00  0.00000E+00  0.10853E+00  0.12379E+00  0.00000E+00  0.11333E+00  0.12237E+00  0.00000E+00  0.11937E+00  0.12263E+00  0.00000E+00  0.12605E+00  0.12196E+00  0.00000E+00  0.12891E+00  0.12189E+00  0.00000E+00  0.13312E+00
        0.21640E+00  0.00000E+00  0.33159E-02  0.22784E+00  0.00000E+00  0.79969E-02  0.21630E+00  0.00000E+00  0.12622E-01  0.23823E+00  0.00000E+00  0.12964E-01  0.22551E+00  0.00000E+00  0.17516E-01  0.20931E+00  0.00000E+00  0.18231E-01
        0.20354E+00  0.00000E+00  0.24462E-01  0.18903E+00  0.00000E+00  0.28236E-01  0.18074E+00  0.00000E+00  0.32178E-01  0.16913E+00  0.00000E+00  0.34416E-01  0.17667E+00  0.00000E+00  0.41451E-01  0.16445E+00  0.00000E+00  0.42931E-01
        0.17492E+00  0.00000E+00  0.50199E-01  0.16366E+00  0.00000E+00  0.52103E-01  0.17186E+00  0.00000E+00  0.59529E-01  0.16232E+00  0.00000E+00  0.61423E-01  0.15632E+00  0.00000E+00  0.66840E-01  0.15934E+00  0.00000E+00  0.73931E-01
        0.15012E+00  0.00000E+00  0.76170E-01  0.15555E+00  0.00000E+00  0.83010E-01  0.14750E+00  0.00000E+00  0.86579E-01  0.15108E+00  0.00000E+00  0.92546E-01  0.14779E+00  0.00000E+00  0.97528E-01  0.14533E+00  0.00000E+00  0.10305E+00
        0.14585E+00  0.00000E+00  0.10816E+00  0.14428E+00  0.00000E+00  0.11301E+00  0.14269E+00  0.00000E+00  0.11900E+00  0.14337E+00  0.00000E+00  0.12561E+00  0.14279E+00  0.00000E+00  0.12843E+00  0.14251E+00  0.00000E+00  0.13264E+00
[...]
<PointData>
      <DataArray type="Float32" Name="Velocity vectors"  NumberOfComponents="3"  format="ascii" >
          0.87011E-01  0.00000E+00  0.35900E-03  0.63786E-01  0.00000E+00 -0.76813E-02  0.50607E-01  0.00000E+00 -0.23853E-02  0.42692E-01  0.00000E+00 -0.13842E-02  0.66684E-02  0.00000E+00 -0.31428E-01  0.45156E-01  0.00000E+00 -0.36004E-01
         -0.16425E-01  0.00000E+00 -0.44729E-01  0.42084E-01  0.00000E+00 -0.56659E-01 -0.69248E-02  0.00000E+00 -0.69451E-01  0.23831E-01  0.00000E+00 -0.73985E-01 -0.10221E-01  0.00000E+00 -0.78928E-01  0.21718E-01  0.00000E+00 -0.85753E-01
         -0.22159E-01  0.00000E+00 -0.84486E-01  0.24595E-01  0.00000E+00 -0.91085E-01 -0.39926E-01  0.00000E+00 -0.89811E-01  0.23559E-01  0.00000E+00 -0.98795E-01 -0.21199E-02  0.00000E+00 -0.93229E-01  0.16052E-01  0.00000E+00 -0.89633E-01
          0.14014E-01  0.00000E+00 -0.92742E-01  0.16254E-01  0.00000E+00 -0.96031E-01  0.15081E-01  0.00000E+00 -0.98088E-01  0.15035E-01  0.00000E+00 -0.98502E-01  0.15670E-01  0.00000E+00 -0.10059E+00  0.13806E-01  0.00000E+00 -0.10533E+00
          0.10488E-01  0.00000E+00 -0.10992E+00  0.10809E-01  0.00000E+00 -0.10922E+00  0.14029E-01  0.00000E+00 -0.11059E+00  0.72310E-02  0.00000E+00 -0.11835E+00  0.43805E-02  0.00000E+00 -0.12532E+00  0.44541E-02  0.00000E+00 -0.12779E+00
          0.10822E+00  0.00000E+00 -0.27248E-02  0.78041E-01  0.00000E+00 -0.12168E-01  0.94634E-01  0.00000E+00 -0.10116E-01  0.88497E-01  0.00000E+00 -0.14337E-01  0.77849E-01  0.00000E+00 -0.16827E-01  0.68000E-01  0.00000E+00 -0.24816E-01
          0.21541E-01  0.00000E+00 -0.39721E-01  0.36205E-01  0.00000E+00 -0.36435E-01  0.26349E-01  0.00000E+00 -0.42337E-01  0.42444E-01  0.00000E+00 -0.45030E-01  0.13931E-01  0.00000E+00 -0.58170E-01  0.29768E-01  0.00000E+00 -0.57181E-01
          0.10628E-01  0.00000E+00 -0.64495E-01  0.27294E-01  0.00000E+00 -0.65124E-01  0.76241E-02  0.00000E+00 -0.75741E-01  0.27921E-01  0.00000E+00 -0.83696E-01 -0.10950E-01  0.00000E+00 -0.82415E-01  0.52134E-01  0.00000E+00 -0.93579E-01
         -0.26866E-01  0.00000E+00 -0.10556E+00  0.56994E-01  0.00000E+00 -0.12627E+00  0.15304E-01  0.00000E+00 -0.11960E+00  0.31723E-01  0.00000E+00 -0.12179E+00  0.22254E-01  0.00000E+00 -0.12740E+00  0.30997E-01  0.00000E+00 -0.12657E+00
          0.18519E-01  0.00000E+00 -0.13131E+00  0.37706E-01  0.00000E+00 -0.13181E+00  0.17036E-01  0.00000E+00 -0.13620E+00  0.28261E-01  0.00000E+00 -0.13738E+00  0.22946E-01  0.00000E+00 -0.14500E+00  0.24960E-01  0.00000E+00 -0.14563E+00
          0.12654E+00  0.00000E+00 -0.11394E-02  0.11764E+00  0.00000E+00 -0.58929E-02  0.15387E+00  0.00000E+00 -0.18674E-01  0.14088E+00  0.00000E+00 -0.21166E-01  0.10794E+00  0.00000E+00 -0.21786E-01  0.11859E+00  0.00000E+00 -0.29062E-01
          0.93831E-01  0.00000E+00 -0.24685E-01  0.97999E-01  0.00000E+00 -0.35698E-01  0.52536E-01  0.00000E+00 -0.46465E-01  0.61626E-01  0.00000E+00 -0.49150E-01  0.46198E-01  0.00000E+00 -0.52160E-01  0.57936E-01  0.00000E+00 -0.57330E-01
          0.40058E-01  0.00000E+00 -0.61228E-01  0.54973E-01  0.00000E+00 -0.67151E-01  0.41708E-01  0.00000E+00 -0.71329E-01  0.60267E-01  0.00000E+00 -0.82272E-01  0.29749E-01  0.00000E+00 -0.82061E-01  0.80269E-01  0.00000E+00 -0.90384E-01
          0.93426E-02  0.00000E+00 -0.10125E+00  0.93077E-01  0.00000E+00 -0.11828E+00  0.15870E-01  0.00000E+00 -0.12873E+00  0.66325E-01  0.00000E+00 -0.12199E+00  0.28286E-01  0.00000E+00 -0.13663E+00  0.53192E-01  0.00000E+00 -0.13478E+00
          0.34451E-01  0.00000E+00 -0.14089E+00  0.40614E-01  0.00000E+00 -0.14184E+00  0.35227E-01  0.00000E+00 -0.14212E+00  0.36876E-01  0.00000E+00 -0.14451E+00  0.31821E-01  0.00000E+00 -0.14913E+00  0.34330E-01  0.00000E+00 -0.14999E+00
          0.19146E+00  0.00000E+00 -0.12777E-02  0.16726E+00  0.00000E+00 -0.28873E-02  0.18441E+00  0.00000E+00 -0.10218E-01  0.14879E+00  0.00000E+00 -0.23228E-01  0.14319E+00  0.00000E+00 -0.15693E-01  0.14905E+00  0.00000E+00 -0.21821E-01
          0.12838E+00  0.00000E+00 -0.28580E-01  0.13139E+00  0.00000E+00 -0.33339E-01  0.10443E+00  0.00000E+00 -0.41637E-01  0.10202E+00  0.00000E+00 -0.48066E-01  0.71984E-01  0.00000E+00 -0.56490E-01  0.86522E-01  0.00000E+00 -0.59700E-01
          0.72094E-01  0.00000E+00 -0.66226E-01  0.86566E-01  0.00000E+00 -0.70569E-01  0.71605E-01  0.00000E+00 -0.78012E-01  0.90448E-01  0.00000E+00 -0.81410E-01  0.63893E-01  0.00000E+00 -0.90969E-01  0.10475E+00  0.00000E+00 -0.87800E-01
          0.44127E-01  0.00000E+00 -0.10241E+00  0.12089E+00  0.00000E+00 -0.10699E+00  0.36331E-01  0.00000E+00 -0.13176E+00  0.10201E+00  0.00000E+00 -0.12463E+00  0.44225E-01  0.00000E+00 -0.14530E+00  0.65835E-01  0.00000E+00 -0.14217E+00
          0.54051E-01  0.00000E+00 -0.14708E+00  0.46416E-01  0.00000E+00 -0.15049E+00  0.47915E-01  0.00000E+00 -0.14987E+00  0.44435E-01  0.00000E+00 -0.15252E+00  0.47339E-01  0.00000E+00 -0.15695E+00  0.45469E-01  0.00000E+00 -0.15809E+00
          0.24101E+00  0.00000E+00 -0.13725E-02  0.21361E+00  0.00000E+00 -0.75708E-02  0.20458E+00  0.00000E+00 -0.10430E-01  0.20797E+00  0.00000E+00 -0.12823E-01  0.16380E+00  0.00000E+00 -0.28778E-01  0.17576E+00  0.00000E+00 -0.27219E-01
          0.15904E+00  0.00000E+00 -0.31862E-01  0.17118E+00  0.00000E+00 -0.41850E-01  0.15030E+00  0.00000E+00 -0.35568E-01  0.16188E+00  0.00000E+00 -0.49576E-01  0.12258E+00  0.00000E+00 -0.51020E-01  0.13836E+00  0.00000E+00 -0.62375E-01
          0.10710E+00  0.00000E+00 -0.67808E-01  0.13069E+00  0.00000E+00 -0.77082E-01  0.10687E+00  0.00000E+00 -0.83388E-01  0.12911E+00  0.00000E+00 -0.90984E-01  0.97359E-01  0.00000E+00 -0.10352E+00  0.13325E+00  0.00000E+00 -0.10056E+00
          0.73803E-01  0.00000E+00 -0.11664E+00  0.14651E+00  0.00000E+00 -0.11499E+00  0.62008E-01  0.00000E+00 -0.14235E+00  0.12149E+00  0.00000E+00 -0.12886E+00  0.71113E-01  0.00000E+00 -0.14831E+00  0.80211E-01  0.00000E+00 -0.14336E+00
          0.67780E-01  0.00000E+00 -0.15088E+00  0.64186E-01  0.00000E+00 -0.15292E+00  0.57776E-01  0.00000E+00 -0.15347E+00  0.59261E-01  0.00000E+00 -0.15577E+00  0.56796E-01  0.00000E+00 -0.16106E+00  0.58468E-01  0.00000E+00 -0.16228E+00
          0.25562E+00  0.00000E+00 -0.62225E-03  0.24499E+00  0.00000E+00 -0.61703E-02  0.21410E+00  0.00000E+00 -0.12982E-01  0.27324E+00  0.00000E+00 -0.12016E-01  0.21924E+00  0.00000E+00 -0.17240E-01  0.24073E+00  0.00000E+00 -0.35293E-01
          0.20141E+00  0.00000E+00 -0.18098E-01  0.22589E+00  0.00000E+00 -0.26644E-01  0.19680E+00  0.00000E+00 -0.40484E-01  0.20029E+00  0.00000E+00 -0.51324E-01  0.18128E+00  0.00000E+00 -0.55613E-01  0.18650E+00  0.00000E+00 -0.63764E-01
          0.16382E+00  0.00000E+00 -0.73158E-01  0.16738E+00  0.00000E+00 -0.78913E-01  0.15023E+00  0.00000E+00 -0.90556E-01  0.17209E+00  0.00000E+00 -0.88050E-01  0.13839E+00  0.00000E+00 -0.11132E+00  0.16601E+00  0.00000E+00 -0.10808E+00
          0.10783E+00  0.00000E+00 -0.13096E+00  0.16324E+00  0.00000E+00 -0.12050E+00  0.80539E-01  0.00000E+00 -0.15121E+00  0.14449E+00  0.00000E+00 -0.14171E+00  0.93958E-01  0.00000E+00 -0.16187E+00  0.94862E-01  0.00000E+00 -0.15508E+00
          0.94465E-01  0.00000E+00 -0.16286E+00  0.77864E-01  0.00000E+00 -0.16799E+00  0.74072E-01  0.00000E+00 -0.16700E+00  0.72957E-01  0.00000E+00 -0.16962E+00  0.72934E-01  0.00000E+00 -0.17461E+00  0.72126E-01  0.00000E+00 -0.17514E+00
          0.29750E+00  0.00000E+00  0.52233E-03  0.33226E+00  0.00000E+00 -0.77330E-02  0.27394E+00  0.00000E+00 -0.11957E-01  0.30074E+00  0.00000E+00 -0.25893E-01  0.29565E+00  0.00000E+00 -0.21324E-01  0.29603E+00  0.00000E+00 -0.21500E-01
          0.27284E+00  0.00000E+00 -0.29672E-01  0.24389E+00  0.00000E+00 -0.44278E-01  0.22331E+00  0.00000E+00 -0.47244E-01  0.23906E+00  0.00000E+00 -0.47985E-01  0.21725E+00  0.00000E+00 -0.50348E-01  0.21676E+00  0.00000E+00 -0.60961E-01
          0.21651E+00  0.00000E+00 -0.61345E-01  0.18555E+00  0.00000E+00 -0.80705E-01  0.19723E+00  0.00000E+00 -0.73004E-01  0.17336E+00  0.00000E+00 -0.95888E-01  0.18200E+00  0.00000E+00 -0.95959E-01  0.19264E+00  0.00000E+00 -0.78001E-01
          0.13173E+00  0.00000E+00 -0.12782E+00  0.18074E+00  0.00000E+00 -0.10676E+00  0.10059E+00  0.00000E+00 -0.14797E+00  0.16946E+00  0.00000E+00 -0.14251E+00  0.12013E+00  0.00000E+00 -0.16307E+00  0.10609E+00  0.00000E+00 -0.15666E+00
          0.11170E+00  0.00000E+00 -0.16812E+00  0.96817E-01  0.00000E+00 -0.16679E+00  0.85158E-01  0.00000E+00 -0.16839E+00  0.90594E-01  0.00000E+00 -0.17229E+00  0.87496E-01  0.00000E+00 -0.17554E+00  0.88352E-01  0.00000E+00 -0.17619E+00
          0.33608E+00  0.00000E+00  0.31421E-04  0.34348E+00  0.00000E+00 -0.70153E-02  0.33248E+00  0.00000E+00  0.41596E-03  0.35043E+00  0.00000E+00 -0.67465E-02  0.33841E+00  0.00000E+00 -0.17099E-01  0.30810E+00  0.00000E+00 -0.20870E-01
          0.29638E+00  0.00000E+00 -0.30123E-01  0.26913E+00  0.00000E+00 -0.26955E-01  0.24446E+00  0.00000E+00 -0.54051E-01  0.23470E+00  0.00000E+00 -0.47856E-01  0.25456E+00  0.00000E+00 -0.58686E-01  0.23607E+00  0.00000E+00 -0.59340E-01
          0.24543E+00  0.00000E+00 -0.65780E-01  0.22618E+00  0.00000E+00 -0.72390E-01  0.24515E+00  0.00000E+00 -0.81663E-01  0.22889E+00  0.00000E+00 -0.84063E-01  0.18499E+00  0.00000E+00 -0.10503E+00  0.23136E+00  0.00000E+00 -0.92314E-01
          0.16743E+00  0.00000E+00 -0.12777E+00  0.21518E+00  0.00000E+00 -0.11343E+00  0.14217E+00  0.00000E+00 -0.14513E+00  0.20509E+00  0.00000E+00 -0.14064E+00  0.15934E+00  0.00000E+00 -0.15399E+00  0.12088E+00  0.00000E+00 -0.15654E+00
          0.13575E+00  0.00000E+00 -0.16776E+00  0.11369E+00  0.00000E+00 -0.16610E+00  0.10052E+00  0.00000E+00 -0.16849E+00  0.11008E+00  0.00000E+00 -0.17330E+00  0.10669E+00  0.00000E+00 -0.17580E+00  0.10666E+00  0.00000E+00 -0.17717E+00
          0.35109E+00  0.00000E+00  0.50025E-03  0.36221E+00  0.00000E+00 -0.92036E-02  0.36076E+00  0.00000E+00 -0.51942E-02  0.39533E+00  0.00000E+00 -0.29544E-01  0.35354E+00  0.00000E+00 -0.14216E-01  0.35169E+00  0.00000E+00 -0.98052E-02
          0.33187E+00  0.00000E+00 -0.25321E-01  0.31787E+00  0.00000E+00 -0.24671E-01  0.29127E+00  0.00000E+00 -0.37397E-01  0.27441E+00  0.00000E+00 -0.43077E-01  0.29758E+00  0.00000E+00 -0.48133E-01  0.27038E+00  0.00000E+00 -0.56350E-01
          0.28478E+00  0.00000E+00 -0.59675E-01  0.25091E+00  0.00000E+00 -0.89340E-01  0.26965E+00  0.00000E+00 -0.89951E-01  0.26401E+00  0.00000E+00 -0.83255E-01  0.23652E+00  0.00000E+00 -0.10031E+00  0.25033E+00  0.00000E+00 -0.94532E-01
          0.20330E+00  0.00000E+00 -0.13539E+00  0.24381E+00  0.00000E+00 -0.11093E+00  0.17161E+00  0.00000E+00 -0.14717E+00  0.23683E+00  0.00000E+00 -0.14356E+00  0.18408E+00  0.00000E+00 -0.16020E+00  0.14860E+00  0.00000E+00 -0.15734E+00
          0.16250E+00  0.00000E+00 -0.16942E+00  0.13895E+00  0.00000E+00 -0.16802E+00  0.12360E+00  0.00000E+00 -0.17102E+00  0.13319E+00  0.00000E+00 -0.17633E+00  0.12776E+00  0.00000E+00 -0.17867E+00  0.12811E+00  0.00000E+00 -0.18016E+00
          0.38076E+00  0.00000E+00 -0.17683E-03  0.38738E+00  0.00000E+00 -0.46157E-02  0.45060E+00  0.00000E+00 -0.20922E-01  0.41958E+00  0.00000E+00 -0.22025E-01  0.42396E+00  0.00000E+00 -0.31376E-01  0.40325E+00  0.00000E+00 -0.29419E-01
          0.37616E+00  0.00000E+00 -0.36634E-01  0.36520E+00  0.00000E+00 -0.15730E-01  0.34077E+00  0.00000E+00 -0.29888E-01  0.33094E+00  0.00000E+00 -0.31664E-01  0.31505E+00  0.00000E+00 -0.57997E-01  0.30746E+00  0.00000E+00 -0.60077E-01
          0.30292E+00  0.00000E+00 -0.58753E-01  0.30642E+00  0.00000E+00 -0.64404E-01  0.26607E+00  0.00000E+00 -0.79280E-01  0.29488E+00  0.00000E+00 -0.74738E-01  0.25919E+00  0.00000E+00 -0.94193E-01  0.28494E+00  0.00000E+00 -0.88665E-01
          0.24670E+00  0.00000E+00 -0.11274E+00  0.27516E+00  0.00000E+00 -0.95431E-01  0.20134E+00  0.00000E+00 -0.13335E+00  0.26028E+00  0.00000E+00 -0.12766E+00  0.20660E+00  0.00000E+00 -0.14589E+00  0.16521E+00  0.00000E+00 -0.14361E+00
          0.18223E+00  0.00000E+00 -0.15622E+00  0.16153E+00  0.00000E+00 -0.15335E+00  0.14217E+00  0.00000E+00 -0.15691E+00  0.15407E+00  0.00000E+00 -0.16260E+00  0.14754E+00  0.00000E+00 -0.16471E+00  0.14763E+00  0.00000E+00 -0.16695E+00
          0.41041E+00  0.00000E+00 -0.11275E-03  0.46303E+00  0.00000E+00 -0.64606E-02  0.45806E+00  0.00000E+00 -0.31494E-02  0.44134E+00  0.00000E+00 -0.58159E-02  0.43745E+00  0.00000E+00 -0.16474E-01  0.41672E+00  0.00000E+00 -0.14177E-01
          0.41269E+00  0.00000E+00 -0.28118E-01  0.41116E+00  0.00000E+00 -0.36730E-01  0.39237E+00  0.00000E+00 -0.50420E-01  0.38437E+00  0.00000E+00 -0.44435E-01  0.36250E+00  0.00000E+00 -0.42518E-01  0.34262E+00  0.00000E+00 -0.49567E-01
          0.32383E+00  0.00000E+00 -0.49397E-01  0.33875E+00  0.00000E+00 -0.56708E-01  0.31101E+00  0.00000E+00 -0.74139E-01  0.34359E+00  0.00000E+00 -0.71434E-01  0.29074E+00  0.00000E+00 -0.99070E-01  0.31644E+00  0.00000E+00 -0.82228E-01
          0.27670E+00  0.00000E+00 -0.11609E+00  0.29963E+00  0.00000E+00 -0.96533E-01  0.23165E+00  0.00000E+00 -0.13195E+00  0.28723E+00  0.00000E+00 -0.12509E+00  0.23574E+00  0.00000E+00 -0.14450E+00  0.19005E+00  0.00000E+00 -0.14204E+00
          0.20700E+00  0.00000E+00 -0.15559E+00  0.18390E+00  0.00000E+00 -0.15336E+00  0.16363E+00  0.00000E+00 -0.15660E+00  0.17551E+00  0.00000E+00 -0.16281E+00  0.16810E+00  0.00000E+00 -0.16503E+00  0.16830E+00  0.00000E+00 -0.16688E+00
          0.47997E+00  0.00000E+00 -0.11223E-02  0.50685E+00  0.00000E+00 -0.67655E-02  0.49256E+00  0.00000E+00 -0.30361E-02  0.45982E+00  0.00000E+00 -0.24879E-01  0.45905E+00  0.00000E+00 -0.24575E-01  0.45251E+00  0.00000E+00 -0.18291E-01
          0.44890E+00  0.00000E+00 -0.21183E-01  0.43784E+00  0.00000E+00 -0.26132E-01  0.42969E+00  0.00000E+00 -0.32567E-01  0.41996E+00  0.00000E+00 -0.40458E-01  0.40776E+00  0.00000E+00 -0.54946E-01  0.38867E+00  0.00000E+00 -0.69084E-01
          0.37410E+00  0.00000E+00 -0.55767E-01  0.37164E+00  0.00000E+00 -0.62221E-01  0.35663E+00  0.00000E+00 -0.78892E-01  0.38385E+00  0.00000E+00 -0.72138E-01  0.32636E+00  0.00000E+00 -0.10727E+00  0.34472E+00  0.00000E+00 -0.84011E-01
          0.30275E+00  0.00000E+00 -0.11707E+00  0.32783E+00  0.00000E+00 -0.99379E-01  0.26295E+00  0.00000E+00 -0.13103E+00  0.31280E+00  0.00000E+00 -0.12135E+00  0.26569E+00  0.00000E+00 -0.13841E+00  0.21447E+00  0.00000E+00 -0.14140E+00
          0.23024E+00  0.00000E+00 -0.15085E+00  0.20705E+00  0.00000E+00 -0.14876E+00  0.18408E+00  0.00000E+00 -0.15434E+00  0.19631E+00  0.00000E+00 -0.15978E+00  0.18761E+00  0.00000E+00 -0.16197E+00  0.18764E+00  0.00000E+00 -0.16437E+00
          0.52632E+00  0.00000E+00 -0.11386E-02  0.54495E+00  0.00000E+00 -0.50248E-02  0.52758E+00  0.00000E+00 -0.41269E-02  0.49797E+00  0.00000E+00 -0.22609E-01  0.49589E+00  0.00000E+00 -0.20940E-01  0.48455E+00  0.00000E+00 -0.18652E-01
          0.47937E+00  0.00000E+00 -0.29906E-01  0.47306E+00  0.00000E+00 -0.34653E-01  0.46634E+00  0.00000E+00 -0.33599E-01  0.44971E+00  0.00000E+00 -0.37577E-01  0.43942E+00  0.00000E+00 -0.36344E-01  0.42496E+00  0.00000E+00 -0.45168E-01
          0.41126E+00  0.00000E+00 -0.54382E-01  0.38762E+00  0.00000E+00 -0.59312E-01  0.39299E+00  0.00000E+00 -0.87522E-01  0.36203E+00  0.00000E+00 -0.88006E-01  0.40892E+00  0.00000E+00 -0.82555E-01  0.34575E+00  0.00000E+00 -0.87290E-01
          0.32477E+00  0.00000E+00 -0.12014E+00  0.35022E+00  0.00000E+00 -0.95181E-01  0.28341E+00  0.00000E+00 -0.12480E+00  0.33532E+00  0.00000E+00 -0.12233E+00  0.28708E+00  0.00000E+00 -0.13544E+00  0.23429E+00  0.00000E+00 -0.14148E+00
          0.25224E+00  0.00000E+00 -0.15092E+00  0.22848E+00  0.00000E+00 -0.14794E+00  0.20419E+00  0.00000E+00 -0.15431E+00  0.21658E+00  0.00000E+00 -0.15992E+00  0.20687E+00  0.00000E+00 -0.16183E+00  0.20695E+00  0.00000E+00 -0.16405E+00
          0.56166E+00  0.00000E+00 -0.37879E-03  0.57707E+00  0.00000E+00 -0.41439E-02  0.56394E+00  0.00000E+00 -0.61202E-02  0.53610E+00  0.00000E+00 -0.20523E-01  0.53458E+00  0.00000E+00 -0.19515E-01  0.51937E+00  0.00000E+00 -0.19226E-01
          0.51512E+00  0.00000E+00 -0.27710E-01  0.50639E+00  0.00000E+00 -0.35246E-01  0.49584E+00  0.00000E+00 -0.36731E-01  0.48699E+00  0.00000E+00 -0.43170E-01  0.48068E+00  0.00000E+00 -0.43664E-01  0.46413E+00  0.00000E+00 -0.47211E-01
          0.45380E+00  0.00000E+00 -0.49978E-01  0.42127E+00  0.00000E+00 -0.56055E-01  0.41368E+00  0.00000E+00 -0.59249E-01  0.37978E+00  0.00000E+00 -0.78969E-01  0.42341E+00  0.00000E+00 -0.76027E-01  0.36766E+00  0.00000E+00 -0.79374E-01
          0.33981E+00  0.00000E+00 -0.10580E+00  0.37116E+00  0.00000E+00 -0.84922E-01  0.30050E+00  0.00000E+00 -0.11426E+00  0.35696E+00  0.00000E+00 -0.11670E+00  0.30988E+00  0.00000E+00 -0.12641E+00  0.25181E+00  0.00000E+00 -0.13576E+00
          0.27111E+00  0.00000E+00 -0.14554E+00  0.24870E+00  0.00000E+00 -0.14161E+00  0.22160E+00  0.00000E+00 -0.14886E+00  0.23588E+00  0.00000E+00 -0.15534E+00  0.22492E+00  0.00000E+00 -0.15671E+00  0.22523E+00  0.00000E+00 -0.15893E+00
          0.59271E+00  0.00000E+00 -0.11990E-03  0.60931E+00  0.00000E+00 -0.44573E-02  0.60337E+00  0.00000E+00 -0.90113E-02  0.57630E+00  0.00000E+00 -0.18779E-01  0.57714E+00  0.00000E+00 -0.20419E-01  0.55696E+00  0.00000E+00 -0.21188E-01
          0.55307E+00  0.00000E+00 -0.27158E-01  0.54263E+00  0.00000E+00 -0.36903E-01  0.53235E+00  0.00000E+00 -0.37401E-01  0.51944E+00  0.00000E+00 -0.43798E-01  0.51116E+00  0.00000E+00 -0.46173E-01  0.49819E+00  0.00000E+00 -0.50636E-01
          0.48710E+00  0.00000E+00 -0.49545E-01  0.47182E+00  0.00000E+00 -0.65790E-01  0.45002E+00  0.00000E+00 -0.55432E-01  0.43902E+00  0.00000E+00 -0.73768E-01  0.40213E+00  0.00000E+00 -0.80828E-01  0.39906E+00  0.00000E+00 -0.61415E-01
          0.35791E+00  0.00000E+00 -0.91601E-01  0.39696E+00  0.00000E+00 -0.76214E-01  0.32229E+00  0.00000E+00 -0.10333E+00  0.38299E+00  0.00000E+00 -0.10787E+00  0.33813E+00  0.00000E+00 -0.11293E+00  0.27301E+00  0.00000E+00 -0.13056E+00
          0.29316E+00  0.00000E+00 -0.13679E+00  0.27081E+00  0.00000E+00 -0.13381E+00  0.24195E+00  0.00000E+00 -0.14181E+00  0.25729E+00  0.00000E+00 -0.14924E+00  0.24580E+00  0.00000E+00 -0.15090E+00  0.24607E+00  0.00000E+00 -0.15337E+00
          0.62792E+00  0.00000E+00 -0.27797E-03  0.64715E+00  0.00000E+00 -0.57542E-02  0.64317E+00  0.00000E+00 -0.12429E-01  0.61776E+00  0.00000E+00 -0.17020E-01  0.62299E+00  0.00000E+00 -0.23423E-01  0.59799E+00  0.00000E+00 -0.22518E-01
          0.59256E+00  0.00000E+00 -0.26800E-01  0.58169E+00  0.00000E+00 -0.38746E-01  0.57195E+00  0.00000E+00 -0.39086E-01  0.55571E+00  0.00000E+00 -0.45218E-01  0.54716E+00  0.00000E+00 -0.46588E-01  0.53263E+00  0.00000E+00 -0.52958E-01
          0.52054E+00  0.00000E+00 -0.54131E-01  0.50421E+00  0.00000E+00 -0.62116E-01  0.48708E+00  0.00000E+00 -0.64026E-01  0.46901E+00  0.00000E+00 -0.63165E-01  0.43838E+00  0.00000E+00 -0.77433E-01  0.41555E+00  0.00000E+00 -0.71492E-01
          0.38270E+00  0.00000E+00 -0.10251E+00  0.42427E+00  0.00000E+00 -0.86141E-01  0.35580E+00  0.00000E+00 -0.10866E+00  0.41593E+00  0.00000E+00 -0.11335E+00  0.36970E+00  0.00000E+00 -0.11725E+00  0.30451E+00  0.00000E+00 -0.13838E+00
          0.32444E+00  0.00000E+00 -0.13862E+00  0.30108E+00  0.00000E+00 -0.13897E+00  0.26971E+00  0.00000E+00 -0.14766E+00  0.28403E+00  0.00000E+00 -0.15501E+00  0.27118E+00  0.00000E+00 -0.15739E+00  0.27105E+00  0.00000E+00 -0.16012E+00
          0.67503E+00  0.00000E+00  0.88766E-04  0.67864E+00  0.00000E+00 -0.98897E-03  0.70173E+00  0.00000E+00 -0.77113E-02  0.65262E+00  0.00000E+00 -0.10122E-01  0.67862E+00  0.00000E+00 -0.30486E-01  0.63810E+00  0.00000E+00 -0.19640E-01