<?xml version="1.0"?>
<VTKFile type="UnstructuredGrid" version="0.1" byte_order="LittleEndian" compressor="vtkZLibDataCompressor">
<UnstructuredGrid>
  <Piece NumberOfPoints="1800"        NumberOfCells="1"      >
    <Points>
      <DataArray type="Float32" NumberOfComponents="3" format="ascii" >
        0.42678E-01  0.00000E+00  0.24924E-02  0.28304E-01  0.00000E+00  0.39158E-02  0.13270E-01  0.00000E+00  0.41517E-02  0.20739E-01  0.00000E+00  0.99397E-02  0.67131E-02  0.00000E+00  0.10421E-01  0.93329E-02  0.00000E+00  0.17040E-01
        0.80975E-02  0.00000E+00  0.22602E-01  0.10887E-01  0.00000E+00  0.28204E-01  0.80238E-02  0.00000E+00  0.34074E-01  0.91753E-02  0.00000E+00  0.40471E-01  0.80688E-02  0.00000E+00  0.46673E-01  0.10250E-01  0.00000E+00  0.52505E-01
        0.93338E-02  0.00000E+00  0.58260E-01  0.11340E-01  0.00000E+00  0.63758E-01  0.11027E-01  0.00000E+00  0.68874E-01  0.11980E-01  0.00000E+00  0.73934E-01  0.11953E-01  0.00000E+00  0.78681E-01  0.12074E-01  0.00000E+00  0.83392E-01
        0.11897E-01  0.00000E+00  0.88085E-01  0.11705E-01  0.00000E+00  0.92837E-01  0.11376E-01  0.00000E+00  0.97580E-01  0.11053E-01  0.00000E+00  0.10239E+00  0.10747E-01  0.00000E+00  0.10732E+00  0.10394E-01  0.00000E+00  0.11229E+00
        0.97858E-02  0.00000E+00  0.11715E+00  0.91610E-02  0.00000E+00  0.12219E+00  0.92814E-02  0.00000E+00  0.12787E+00  0.92081E-02  0.00000E+00  0.13369E+00  0.70414E-02  0.00000E+00  0.13836E+00  0.72746E-02  0.00000E+00  0.14208E+00
        0.57068E-01  0.00000E+00  0.35000E-02  0.35270E-01  0.00000E+00  0.10530E-01  0.50010E-01  0.00000E+00  0.10793E-01  0.42521E-01  0.00000E+00  0.16523E-01  0.25848E-01  0.00000E+00  0.16426E-01  0.35982E-01  0.00000E+00  0.22770E-01
        0.22189E-01  0.00000E+00  0.23577E-01  0.33157E-01  0.00000E+00  0.30039E-01  0.21965E-01  0.00000E+00  0.32661E-01  0.32452E-01  0.00000E+00  0.38290E-01  0.21444E-01  0.00000E+00  0.41932E-01  0.31839E-01  0.00000E+00  0.46891E-01
        0.22014E-01  0.00000E+00  0.51450E-01  0.32810E-01  0.00000E+00  0.55821E-01  0.23572E-01  0.00000E+00  0.61177E-01  0.33648E-01  0.00000E+00  0.65365E-01  0.26621E-01  0.00000E+00  0.70791E-01  0.32488E-01  0.00000E+00  0.75690E-01
        0.29911E-01  0.00000E+00  0.81251E-01  0.30864E-01  0.00000E+00  0.86852E-01  0.30150E-01  0.00000E+00  0.92339E-01  0.29752E-01  0.00000E+00  0.97914E-01  0.29092E-01  0.00000E+00  0.10342E+00  0.28639E-01  0.00000E+00  0.10925E+00
        0.27702E-01  0.00000E+00  0.11504E+00  0.27908E-01  0.00000E+00  0.12008E+00  0.25830E-01  0.00000E+00  0.12600E+00  0.26607E-01  0.00000E+00  0.13315E+00  0.24605E-01  0.00000E+00  0.13700E+00  0.24942E-01  0.00000E+00  0.14117E+00
        0.74477E-01  0.00000E+00  0.33409E-02  0.64861E-01  0.00000E+00  0.93936E-02  0.81881E-01  0.00000E+00  0.10367E-01  0.71695E-01  0.00000E+00  0.15697E-01  0.56786E-01  0.00000E+00  0.17875E-01  0.65185E-01  0.00000E+00  0.22909E-01
        0.48777E-01  0.00000E+00  0.24949E-01  0.58631E-01  0.00000E+00  0.29598E-01  0.44887E-01  0.00000E+00  0.32808E-01  0.55792E-01  0.00000E+00  0.37572E-01  0.43831E-01  0.00000E+00  0.41445E-01  0.54779E-01  0.00000E+00  0.46162E-01
        0.43259E-01  0.00000E+00  0.50309E-01  0.54325E-01  0.00000E+00  0.55006E-01  0.43745E-01  0.00000E+00  0.59649E-01  0.54087E-01  0.00000E+00  0.64502E-01  0.45461E-01  0.00000E+00  0.69394E-01  0.52386E-01  0.00000E+00  0.74417E-01
        0.48066E-01  0.00000E+00  0.79746E-01  0.49759E-01  0.00000E+00  0.85535E-01  0.48413E-01  0.00000E+00  0.91015E-01  0.48204E-01  0.00000E+00  0.96711E-01  0.47073E-01  0.00000E+00  0.10230E+00  0.46767E-01  0.00000E+00  0.10819E+00
        0.45652E-01  0.00000E+00  0.11400E+00  0.45132E-01  0.00000E+00  0.11925E+00  0.44195E-01  0.00000E+00  0.12537E+00  0.43755E-01  0.00000E+00  0.13235E+00  0.42435E-01  0.00000E+00  0.13626E+00  0.42503E-01  0.00000E+00  0.14066E+00
        0.10877E+00  0.00000E+00  0.33625E-02  0.90979E-01  0.00000E+00  0.57197E-02  0.10042E+00  0.00000E+00  0.99349E-02  0.96404E-01  0.00000E+00  0.17574E-01  0.83775E-01  0.00000E+00  0.18930E-01  0.90993E-01  0.00000E+00  0.25115E-01
        0.75848E-01  0.00000E+00  0.25708E-01  0.84478E-01  0.00000E+00  0.32047E-01  0.69897E-01  0.00000E+00  0.33374E-01  0.79673E-01  0.00000E+00  0.39238E-01  0.66810E-01  0.00000E+00  0.41622E-01  0.77509E-01  0.00000E+00  0.47414E-01
        0.65610E-01  0.00000E+00  0.50390E-01  0.76298E-01  0.00000E+00  0.56112E-01  0.64822E-01  0.00000E+00  0.59626E-01  0.75071E-01  0.00000E+00  0.65173E-01  0.65425E-01  0.00000E+00  0.69146E-01  0.72392E-01  0.00000E+00  0.74599E-01
        0.67046E-01  0.00000E+00  0.79483E-01  0.68909E-01  0.00000E+00  0.85402E-01  0.66683E-01  0.00000E+00  0.90729E-01  0.66837E-01  0.00000E+00  0.96440E-01  0.65301E-01  0.00000E+00  0.10196E+00  0.64848E-01  0.00000E+00  0.10784E+00
        0.63883E-01  0.00000E+00  0.11362E+00  0.62907E-01  0.00000E+00  0.11873E+00  0.62336E-01  0.00000E+00  0.12484E+00  0.61400E-01  0.00000E+00  0.13180E+00  0.61624E-01  0.00000E+00  0.13564E+00  0.61116E-01  0.00000E+00  0.13993E+00
        0.13590E+00  0.00000E+00  0.33840E-02  0.12230E+00  0.00000E+00  0.63904E-02  0.11274E+00  0.00000E+00  0.12434E-01  0.12339E+00  0.00000E+00  0.16723E-01  0.10913E+00  0.00000E+00  0.20613E-01  0.11943E+00  0.00000E+00  0.24742E-01
        0.10224E+00  0.00000E+00  0.26635E-01  0.11153E+00  0.00000E+00  0.31803E-01  0.96563E-01  0.00000E+00  0.34699E-01  0.10564E+00  0.00000E+00  0.39948E-01  0.91150E-01  0.00000E+00  0.42240E-01  0.10073E+00  0.00000E+00  0.47798E-01
        0.88427E-01  0.00000E+00  0.50703E-01  0.98339E-01  0.00000E+00  0.56705E-01  0.86776E-01  0.00000E+00  0.59762E-01  0.95934E-01  0.00000E+00  0.65849E-01  0.86138E-01  0.00000E+00  0.69343E-01  0.92114E-01  0.00000E+00  0.75406E-01
        0.86313E-01  0.00000E+00  0.79888E-01  0.87751E-01  0.00000E+00  0.85950E-01  0.85308E-01  0.00000E+00  0.91269E-01  0.85206E-01  0.00000E+00  0.96908E-01  0.83760E-01  0.00000E+00  0.10244E+00  0.83034E-01  0.00000E+00  0.10824E+00
        0.82084E-01  0.00000E+00  0.11394E+00  0.81339E-01  0.00000E+00  0.11903E+00  0.80442E-01  0.00000E+00  0.12506E+00  0.79967E-01  0.00000E+00  0.13193E+00  0.79257E-01  0.00000E+00  0.13562E+00  0.79285E-01  0.00000E+00  0.13998E+00
        0.15573E+00  0.00000E+00  0.32433E-02  0.14617E+00  0.00000E+00  0.85013E-02  0.13270E+00  0.00000E+00  0.12305E-01  0.15659E+00  0.00000E+00  0.13955E-01  0.14153E+00  0.00000E+00  0.17347E-01  0.15060E+00  0.00000E+00  0.21138E-01
        0.13286E+00  0.00000E+00  0.23022E-01  0.13513E+00  0.00000E+00  0.31154E-01  0.12375E+00  0.00000E+00  0.32423E-01  0.12931E+00  0.00000E+00  0.39520E-01  0.11630E+00  0.00000E+00  0.40982E-01  0.12130E+00  0.00000E+00  0.48528E-01
        0.11077E+00  0.00000E+00  0.50917E-01  0.11881E+00  0.00000E+00  0.58518E-01  0.10827E+00  0.00000E+00  0.60708E-01  0.11591E+00  0.00000E+00  0.67611E-01  0.10667E+00  0.00000E+00  0.70468E-01  0.11112E+00  0.00000E+00  0.77163E-01
        0.10496E+00  0.00000E+00  0.81293E-01  0.10659E+00  0.00000E+00  0.87492E-01  0.10337E+00  0.00000E+00  0.92637E-01  0.10383E+00  0.00000E+00  0.98296E-01  0.10213E+00  0.00000E+00  0.10372E+00  0.10128E+00  0.00000E+00  0.10952E+00
        0.10069E+00  0.00000E+00  0.11514E+00  0.99604E-01  0.00000E+00  0.12006E+00  0.98881E-01  0.00000E+00  0.12616E+00  0.98504E-01  0.00000E+00  0.13300E+00  0.98364E-01  0.00000E+00  0.13642E+00  0.98105E-01  0.00000E+00  0.14070E+00
        0.17703E+00  0.00000E+00  0.30819E-02  0.18815E+00  0.00000E+00  0.74290E-02  0.16661E+00  0.00000E+00  0.82211E-02  0.18320E+00  0.00000E+00  0.14442E-01  0.17052E+00  0.00000E+00  0.15796E-01  0.17781E+00  0.00000E+00  0.21382E-01
        0.16442E+00  0.00000E+00  0.22965E-01  0.15785E+00  0.00000E+00  0.28357E-01  0.14564E+00  0.00000E+00  0.28979E-01  0.14499E+00  0.00000E+00  0.37323E-01  0.14218E+00  0.00000E+00  0.45030E-01  0.13268E+00  0.00000E+00  0.47809E-01
        0.14206E+00  0.00000E+00  0.55120E-01  0.12974E+00  0.00000E+00  0.56727E-01  0.13843E+00  0.00000E+00  0.63743E-01  0.12964E+00  0.00000E+00  0.66097E-01  0.12893E+00  0.00000E+00  0.72941E-01  0.12813E+00  0.00000E+00  0.78670E-01
        0.12338E+00  0.00000E+00  0.83337E-01  0.12567E+00  0.00000E+00  0.89606E-01  0.12173E+00  0.00000E+00  0.94433E-01  0.12275E+00  0.00000E+00  0.10016E+00  0.12092E+00  0.00000E+00  0.10549E+00  0.11989E+00  0.00000E+00  0.11121E+00
        0.11954E+00  0.00000E+00  0.11677E+00  0.11876E+00  0.00000E+00  0.12158E+00  0.11778E+00  0.00000E+00  0.12766E+00  0.11784E+00  0.00000E+00  0.13451E+00  0.11726E+00  0.00000E+00  0.13764E+00  0.11716E+00  0.00000E+00  0.14188E+00
        0.19996E+00  0.00000E+00  0.33167E-02  0.21101E+00  0.00000E+00  0.83649E-02  0.20005E+00  0.00000E+00  0.12622E-01  0.22102E+00  0.00000E+00  0.13345E-01  0.20890E+00  0.00000E+00  0.18442E-01  0.19428E+00  0.00000E+00  0.19269E-01
        0.18908E+00  0.00000E+00  0.26092E-01  0.17582E+00  0.00000E+00  0.29601E-01  0.16892E+00  0.00000E+00  0.34928E-01  0.15771E+00  0.00000E+00  0.36942E-01  0.16381E+00  0.00000E+00  0.44481E-01  0.15269E+00  0.00000E+00  0.46262E-01
        0.16237E+00  0.00000E+00  0.53686E-01  0.15214E+00  0.00000E+00  0.56246E-01  0.15890E+00  0.00000E+00  0.63652E-01  0.15067E+00  0.00000E+00  0.66398E-01  0.14703E+00  0.00000E+00  0.72578E-01  0.14766E+00  0.00000E+00  0.78675E-01
        0.14279E+00  0.00000E+00  0.82880E-01  0.14489E+00  0.00000E+00  0.89099E-01  0.14103E+00  0.00000E+00  0.94171E-01  0.14193E+00  0.00000E+00  0.99720E-01  0.14046E+00  0.00000E+00  0.10521E+00  0.13921E+00  0.00000E+00  0.11085E+00
        0.13920E+00  0.00000E+00  0.11635E+00  0.13834E+00  0.00000E+00  0.12118E+00  0.13728E+00  0.00000E+00  0.12725E+00  0.13757E+00  0.00000E+00  0.13405E+00  0.13709E+00  0.00000E+00  0.13712E+00  0.13682E+00  0.00000E+00  0.14140E+00
[...]
<PointData>
      <DataArray type="Float32" Name="Velocity vectors"  NumberOfComponents="3"  format="ascii" >
          0.84257E-01  0.00000E+00 -0.33177E-03  0.73539E-01  0.00000E+00 -0.32898E-02  0.72298E-01  0.00000E+00 -0.93088E-02  0.49695E-01  0.00000E+00 -0.61852E-02 -0.73826E-03  0.00000E+00 -0.51952E-01  0.19676E-01  0.00000E+00 -0.48104E-01
         -0.28200E-02  0.00000E+00 -0.53750E-01  0.39190E-01  0.00000E+00 -0.68981E-01 -0.26134E-02  0.00000E+00 -0.80198E-01  0.10568E-01  0.00000E+00 -0.78260E-01 -0.89836E-02  0.00000E+00 -0.79925E-01  0.11141E-01  0.00000E+00 -0.85211E-01
         -0.21592E-01  0.00000E+00 -0.81184E-01  0.12000E-01  0.00000E+00 -0.79932E-01 -0.65758E-02  0.00000E+00 -0.78813E-01  0.17556E-01  0.00000E+00 -0.75710E-01  0.15396E-01  0.00000E+00 -0.76826E-01  0.21335E-01  0.00000E+00 -0.78675E-01
          0.22161E-01  0.00000E+00 -0.82338E-01  0.22620E-01  0.00000E+00 -0.86617E-01  0.21210E-01  0.00000E+00 -0.91421E-01  0.20991E-01  0.00000E+00 -0.94926E-01  0.21132E-01  0.00000E+00 -0.98698E-01  0.19402E-01  0.00000E+00 -0.10461E+00
          0.15274E-01  0.00000E+00 -0.11195E+00  0.14241E-01  0.00000E+00 -0.11542E+00  0.17250E-01  0.00000E+00 -0.11777E+00  0.95870E-02  0.00000E+00 -0.12535E+00  0.46274E-02  0.00000E+00 -0.13566E+00  0.51334E-02  0.00000E+00 -0.14051E+00
          0.10811E+00  0.00000E+00 -0.31757E-02  0.80032E-01  0.00000E+00 -0.79581E-02  0.91475E-01  0.00000E+00 -0.11978E-01  0.86266E-01  0.00000E+00 -0.11542E-01  0.61955E-01  0.00000E+00 -0.18699E-01  0.52778E-01  0.00000E+00 -0.31107E-01
          0.16734E-01  0.00000E+00 -0.36630E-01  0.36586E-01  0.00000E+00 -0.39265E-01  0.22938E-01  0.00000E+00 -0.42781E-01  0.33460E-01  0.00000E+00 -0.50086E-01  0.11772E-01  0.00000E+00 -0.57784E-01  0.20994E-01  0.00000E+00 -0.56459E-01
          0.67894E-02  0.00000E+00 -0.68384E-01  0.20350E-01  0.00000E+00 -0.74276E-01 -0.81034E-02  0.00000E+00 -0.79322E-01  0.41356E-01  0.00000E+00 -0.88481E-01 -0.30932E-01  0.00000E+00 -0.96248E-01  0.61025E-01  0.00000E+00 -0.12324E+00
          0.54237E-02  0.00000E+00 -0.11975E+00  0.47775E-01  0.00000E+00 -0.12085E+00  0.38453E-01  0.00000E+00 -0.12964E+00  0.41331E-01  0.00000E+00 -0.13151E+00  0.37087E-01  0.00000E+00 -0.13316E+00  0.38758E-01  0.00000E+00 -0.13570E+00
          0.31828E-01  0.00000E+00 -0.14061E+00  0.40792E-01  0.00000E+00 -0.14357E+00  0.25923E-01  0.00000E+00 -0.14428E+00  0.31778E-01  0.00000E+00 -0.14742E+00  0.26427E-01  0.00000E+00 -0.15735E+00  0.27501E-01  0.00000E+00 -0.15871E+00
          0.11724E+00  0.00000E+00 -0.13561E-02  0.11145E+00  0.00000E+00 -0.36188E-02  0.14556E+00  0.00000E+00 -0.19503E-01  0.13656E+00  0.00000E+00 -0.20502E-01  0.10690E+00  0.00000E+00 -0.23109E-01  0.11052E+00  0.00000E+00 -0.27462E-01
          0.78946E-01  0.00000E+00 -0.31256E-01  0.78693E-01  0.00000E+00 -0.42084E-01  0.43508E-01  0.00000E+00 -0.46868E-01  0.56194E-01  0.00000E+00 -0.55228E-01  0.40695E-01  0.00000E+00 -0.55392E-01  0.52520E-01  0.00000E+00 -0.65183E-01
          0.39031E-01  0.00000E+00 -0.66584E-01  0.54981E-01  0.00000E+00 -0.78594E-01  0.33692E-01  0.00000E+00 -0.82697E-01  0.75667E-01  0.00000E+00 -0.90710E-01  0.10830E-01  0.00000E+00 -0.10037E+00  0.10082E+00  0.00000E+00 -0.11864E+00
          0.17231E-01  0.00000E+00 -0.13159E+00  0.81465E-01  0.00000E+00 -0.13080E+00  0.53013E-01  0.00000E+00 -0.14097E+00  0.63571E-01  0.00000E+00 -0.14308E+00  0.49347E-01  0.00000E+00 -0.14609E+00  0.55603E-01  0.00000E+00 -0.14821E+00
          0.46809E-01  0.00000E+00 -0.15400E+00  0.47524E-01  0.00000E+00 -0.15608E+00  0.43037E-01  0.00000E+00 -0.15546E+00  0.42890E-01  0.00000E+00 -0.15931E+00  0.38750E-01  0.00000E+00 -0.16575E+00  0.40232E-01  0.00000E+00 -0.16703E+00
          0.18139E+00  0.00000E+00 -0.85593E-03  0.15577E+00  0.00000E+00 -0.47627E-02  0.17061E+00  0.00000E+00 -0.13541E-01  0.14311E+00  0.00000E+00 -0.22794E-01  0.13884E+00  0.00000E+00 -0.16885E-01  0.14239E+00  0.00000E+00 -0.21996E-01
          0.11944E+00  0.00000E+00 -0.31741E-01  0.11787E+00  0.00000E+00 -0.36108E-01  0.87424E-01  0.00000E+00 -0.46370E-01  0.90953E-01  0.00000E+00 -0.53132E-01  0.67886E-01  0.00000E+00 -0.59198E-01  0.86026E-01  0.00000E+00 -0.65657E-01
          0.71796E-01  0.00000E+00 -0.72621E-01  0.92357E-01  0.00000E+00 -0.80427E-01  0.70961E-01  0.00000E+00 -0.91363E-01  0.11134E+00  0.00000E+00 -0.90264E-01  0.51040E-01  0.00000E+00 -0.10477E+00  0.13740E+00  0.00000E+00 -0.11547E+00
          0.47770E-01  0.00000E+00 -0.14007E+00  0.11731E+00  0.00000E+00 -0.13268E+00  0.65583E-01  0.00000E+00 -0.14784E+00  0.87952E-01  0.00000E+00 -0.14885E+00  0.64676E-01  0.00000E+00 -0.15335E+00  0.69921E-01  0.00000E+00 -0.15545E+00
          0.64047E-01  0.00000E+00 -0.16076E+00  0.58342E-01  0.00000E+00 -0.16430E+00  0.57428E-01  0.00000E+00 -0.16365E+00  0.54131E-01  0.00000E+00 -0.16719E+00  0.56150E-01  0.00000E+00 -0.17382E+00  0.54543E-01  0.00000E+00 -0.17563E+00
          0.22292E+00  0.00000E+00 -0.56389E-03  0.20168E+00  0.00000E+00 -0.87427E-02  0.18563E+00  0.00000E+00 -0.11711E-01  0.19035E+00  0.00000E+00 -0.19068E-01  0.15682E+00  0.00000E+00 -0.24395E-01  0.16881E+00  0.00000E+00 -0.30314E-01
          0.14847E+00  0.00000E+00 -0.32095E-01  0.16316E+00  0.00000E+00 -0.43490E-01  0.13725E+00  0.00000E+00 -0.37907E-01  0.15167E+00  0.00000E+00 -0.52341E-01  0.11275E+00  0.00000E+00 -0.57924E-01  0.13174E+00  0.00000E+00 -0.67530E-01
          0.10971E+00  0.00000E+00 -0.74496E-01  0.13799E+00  0.00000E+00 -0.85613E-01  0.11221E+00  0.00000E+00 -0.10007E+00  0.15458E+00  0.00000E+00 -0.98634E-01  0.91687E-01  0.00000E+00 -0.11670E+00  0.17702E+00  0.00000E+00 -0.12240E+00
          0.82549E-01  0.00000E+00 -0.15283E+00  0.14102E+00  0.00000E+00 -0.13862E+00  0.86751E-01  0.00000E+00 -0.15554E+00  0.10392E+00  0.00000E+00 -0.15649E+00  0.84222E-01  0.00000E+00 -0.15992E+00  0.84714E-01  0.00000E+00 -0.16281E+00
          0.78873E-01  0.00000E+00 -0.16814E+00  0.75863E-01  0.00000E+00 -0.17080E+00  0.71159E-01  0.00000E+00 -0.17088E+00  0.70611E-01  0.00000E+00 -0.17443E+00  0.68417E-01  0.00000E+00 -0.18085E+00  0.69278E-01  0.00000E+00 -0.18239E+00
          0.23702E+00  0.00000E+00 -0.12865E-02  0.22482E+00  0.00000E+00 -0.84239E-02  0.20377E+00  0.00000E+00 -0.88409E-02  0.25606E+00  0.00000E+00 -0.18715E-01  0.21256E+00  0.00000E+00 -0.15496E-01  0.23344E+00  0.00000E+00 -0.39913E-01
          0.18861E+00  0.00000E+00 -0.23647E-01  0.20802E+00  0.00000E+00 -0.29776E-01  0.18439E+00  0.00000E+00 -0.44165E-01  0.19406E+00  0.00000E+00 -0.56727E-01  0.16935E+00  0.00000E+00 -0.59790E-01  0.17840E+00  0.00000E+00 -0.70455E-01
          0.15789E+00  0.00000E+00 -0.82862E-01  0.17680E+00  0.00000E+00 -0.80567E-01  0.15731E+00  0.00000E+00 -0.10670E+00  0.20022E+00  0.00000E+00 -0.95149E-01  0.13604E+00  0.00000E+00 -0.12894E+00  0.20833E+00  0.00000E+00 -0.12297E+00
          0.10672E+00  0.00000E+00 -0.15799E+00  0.16159E+00  0.00000E+00 -0.14205E+00  0.98596E-01  0.00000E+00 -0.16362E+00  0.12674E+00  0.00000E+00 -0.16185E+00  0.10155E+00  0.00000E+00 -0.16737E+00  0.99112E-01  0.00000E+00 -0.16988E+00
          0.97721E-01  0.00000E+00 -0.17507E+00  0.88795E-01  0.00000E+00 -0.17792E+00  0.85339E-01  0.00000E+00 -0.17758E+00  0.83892E-01  0.00000E+00 -0.18162E+00  0.83823E-01  0.00000E+00 -0.18735E+00  0.83068E-01  0.00000E+00 -0.18799E+00
          0.28609E+00  0.00000E+00 -0.80356E-03  0.31717E+00  0.00000E+00 -0.10585E-01  0.26137E+00  0.00000E+00 -0.16840E-01  0.27942E+00  0.00000E+00 -0.26374E-01  0.27769E+00  0.00000E+00 -0.22479E-01  0.27651E+00  0.00000E+00 -0.27964E-01
          0.25641E+00  0.00000E+00 -0.32021E-01  0.23119E+00  0.00000E+00 -0.51804E-01  0.20879E+00  0.00000E+00 -0.54819E-01  0.22693E+00  0.00000E+00 -0.55401E-01  0.21321E+00  0.00000E+00 -0.55420E-01  0.20094E+00  0.00000E+00 -0.70094E-01
          0.22287E+00  0.00000E+00 -0.77221E-01  0.19016E+00  0.00000E+00 -0.96608E-01  0.23355E+00  0.00000E+00 -0.84581E-01  0.18550E+00  0.00000E+00 -0.12344E+00  0.19557E+00  0.00000E+00 -0.11705E+00  0.20378E+00  0.00000E+00 -0.10206E+00
          0.10908E+00  0.00000E+00 -0.13784E+00  0.18854E+00  0.00000E+00 -0.11995E+00  0.10629E+00  0.00000E+00 -0.14831E+00  0.14867E+00  0.00000E+00 -0.14433E+00  0.11574E+00  0.00000E+00 -0.15084E+00  0.10873E+00  0.00000E+00 -0.15420E+00
          0.11103E+00  0.00000E+00 -0.15892E+00  0.10464E+00  0.00000E+00 -0.16090E+00  0.97759E-01  0.00000E+00 -0.16118E+00  0.10095E+00  0.00000E+00 -0.16421E+00  0.99605E-01  0.00000E+00 -0.17165E+00  0.10003E+00  0.00000E+00 -0.17269E+00
          0.32116E+00  0.00000E+00 -0.14439E-03  0.33016E+00  0.00000E+00 -0.83310E-02  0.31709E+00  0.00000E+00 -0.16429E-02  0.33905E+00  0.00000E+00 -0.96583E-02  0.32593E+00  0.00000E+00 -0.20849E-01  0.29240E+00  0.00000E+00 -0.21619E-01
          0.28069E+00  0.00000E+00 -0.36256E-01  0.25654E+00  0.00000E+00 -0.29765E-01  0.22734E+00  0.00000E+00 -0.55084E-01  0.22017E+00  0.00000E+00 -0.51851E-01  0.25913E+00  0.00000E+00 -0.61288E-01  0.23411E+00  0.00000E+00 -0.73248E-01
          0.25825E+00  0.00000E+00 -0.71967E-01  0.23502E+00  0.00000E+00 -0.93355E-01  0.27695E+00  0.00000E+00 -0.83901E-01  0.23454E+00  0.00000E+00 -0.11701E+00  0.18695E+00  0.00000E+00 -0.12313E+00  0.22957E+00  0.00000E+00 -0.10063E+00
          0.13357E+00  0.00000E+00 -0.14109E+00  0.20520E+00  0.00000E+00 -0.12842E+00  0.12311E+00  0.00000E+00 -0.14934E+00  0.16142E+00  0.00000E+00 -0.14486E+00  0.13800E+00  0.00000E+00 -0.14911E+00  0.12480E+00  0.00000E+00 -0.15239E+00
          0.13263E+00  0.00000E+00 -0.15745E+00  0.12451E+00  0.00000E+00 -0.15883E+00  0.11629E+00  0.00000E+00 -0.15955E+00  0.12241E+00  0.00000E+00 -0.16264E+00  0.12106E+00  0.00000E+00 -0.17011E+00  0.12066E+00  0.00000E+00 -0.17148E+00
          0.33997E+00  0.00000E+00  0.35482E-03  0.35374E+00  0.00000E+00 -0.11551E-01  0.35534E+00  0.00000E+00 -0.38036E-02  0.39544E+00  0.00000E+00 -0.29338E-01  0.34756E+00  0.00000E+00 -0.21837E-01  0.34008E+00  0.00000E+00 -0.12972E-01
          0.31264E+00  0.00000E+00 -0.35590E-01  0.30124E+00  0.00000E+00 -0.30453E-01  0.27945E+00  0.00000E+00 -0.45380E-01  0.26034E+00  0.00000E+00 -0.49986E-01  0.28796E+00  0.00000E+00 -0.54221E-01  0.26403E+00  0.00000E+00 -0.65614E-01
          0.28670E+00  0.00000E+00 -0.70258E-01  0.25611E+00  0.00000E+00 -0.90860E-01  0.27857E+00  0.00000E+00 -0.85076E-01  0.28305E+00  0.00000E+00 -0.70232E-01  0.20810E+00  0.00000E+00 -0.11779E+00  0.25630E+00  0.00000E+00 -0.10268E+00
          0.15828E+00  0.00000E+00 -0.14858E+00  0.22411E+00  0.00000E+00 -0.13607E+00  0.14585E+00  0.00000E+00 -0.16173E+00  0.18520E+00  0.00000E+00 -0.15575E+00  0.15707E+00  0.00000E+00 -0.16137E+00  0.14471E+00  0.00000E+00 -0.16495E+00
          0.15219E+00  0.00000E+00 -0.17047E+00  0.14418E+00  0.00000E+00 -0.16992E+00  0.13669E+00  0.00000E+00 -0.17119E+00  0.14295E+00  0.00000E+00 -0.17553E+00  0.14111E+00  0.00000E+00 -0.18127E+00  0.14109E+00  0.00000E+00 -0.18170E+00
          0.37363E+00  0.00000E+00  0.28124E-03  0.37342E+00  0.00000E+00 -0.64107E-02  0.44427E+00  0.00000E+00 -0.22599E-01  0.41913E+00  0.00000E+00 -0.26704E-01  0.41574E+00  0.00000E+00 -0.35575E-01  0.39596E+00  0.00000E+00 -0.35206E-01
          0.36738E+00  0.00000E+00 -0.45954E-01  0.35645E+00  0.00000E+00 -0.26427E-01  0.32593E+00  0.00000E+00 -0.43407E-01  0.31568E+00  0.00000E+00 -0.40806E-01  0.29538E+00  0.00000E+00 -0.65220E-01  0.29817E+00  0.00000E+00 -0.60464E-01
          0.29462E+00  0.00000E+00 -0.62131E-01  0.31149E+00  0.00000E+00 -0.65277E-01  0.26487E+00  0.00000E+00 -0.85985E-01  0.32659E+00  0.00000E+00 -0.81608E-01  0.25547E+00  0.00000E+00 -0.11688E+00  0.30865E+00  0.00000E+00 -0.10159E+00
          0.20551E+00  0.00000E+00 -0.13869E+00  0.25449E+00  0.00000E+00 -0.11449E+00  0.17524E+00  0.00000E+00 -0.15267E+00  0.20361E+00  0.00000E+00 -0.14416E+00  0.17627E+00  0.00000E+00 -0.14683E+00  0.16038E+00  0.00000E+00 -0.15338E+00
          0.16980E+00  0.00000E+00 -0.15781E+00  0.16258E+00  0.00000E+00 -0.15790E+00  0.15284E+00  0.00000E+00 -0.15989E+00  0.16165E+00  0.00000E+00 -0.16323E+00  0.15929E+00  0.00000E+00 -0.16972E+00  0.15923E+00  0.00000E+00 -0.17147E+00
          0.39469E+00  0.00000E+00 -0.23349E-02  0.44909E+00  0.00000E+00 -0.10786E-01  0.46432E+00  0.00000E+00 -0.81071E-02  0.44442E+00  0.00000E+00 -0.13748E-01  0.43281E+00  0.00000E+00 -0.22559E-01  0.41602E+00  0.00000E+00 -0.19247E-01
          0.41070E+00  0.00000E+00 -0.36314E-01  0.40622E+00  0.00000E+00 -0.43729E-01  0.38522E+00  0.00000E+00 -0.61353E-01  0.37390E+00  0.00000E+00 -0.52756E-01  0.35058E+00  0.00000E+00 -0.60013E-01  0.32930E+00  0.00000E+00 -0.70151E-01
          0.31272E+00  0.00000E+00 -0.67943E-01  0.33797E+00  0.00000E+00 -0.69360E-01  0.30277E+00  0.00000E+00 -0.96371E-01  0.37373E+00  0.00000E+00 -0.90028E-01  0.29185E+00  0.00000E+00 -0.11591E+00  0.32289E+00  0.00000E+00 -0.94044E-01
          0.22198E+00  0.00000E+00 -0.13610E+00  0.28117E+00  0.00000E+00 -0.10983E+00  0.19515E+00  0.00000E+00 -0.14626E+00  0.22891E+00  0.00000E+00 -0.13836E+00  0.19739E+00  0.00000E+00 -0.14181E+00  0.18066E+00  0.00000E+00 -0.14852E+00
          0.19145E+00  0.00000E+00 -0.15486E+00  0.18329E+00  0.00000E+00 -0.15382E+00  0.17323E+00  0.00000E+00 -0.15593E+00  0.18213E+00  0.00000E+00 -0.16021E+00  0.17928E+00  0.00000E+00 -0.16685E+00  0.17927E+00  0.00000E+00 -0.16830E+00
          0.47438E+00  0.00000E+00 -0.24209E-02  0.50052E+00  0.00000E+00 -0.93683E-02  0.49521E+00  0.00000E+00 -0.35933E-02  0.45989E+00  0.00000E+00 -0.21524E-01  0.45456E+00  0.00000E+00 -0.24894E-01  0.44540E+00  0.00000E+00 -0.17991E-01
          0.44364E+00  0.00000E+00 -0.27276E-01  0.43537E+00  0.00000E+00 -0.32377E-01  0.42461E+00  0.00000E+00 -0.41331E-01  0.41375E+00  0.00000E+00 -0.47770E-01  0.39582E+00  0.00000E+00 -0.63743E-01  0.37427E+00  0.00000E+00 -0.82907E-01
          0.35852E+00  0.00000E+00 -0.76160E-01  0.36679E+00  0.00000E+00 -0.70750E-01  0.33913E+00  0.00000E+00 -0.10480E+00  0.38794E+00  0.00000E+00 -0.95767E-01  0.31093E+00  0.00000E+00 -0.12202E+00  0.34301E+00  0.00000E+00 -0.94926E-01
          0.24257E+00  0.00000E+00 -0.13600E+00  0.29794E+00  0.00000E+00 -0.11442E+00  0.21239E+00  0.00000E+00 -0.14478E+00  0.24711E+00  0.00000E+00 -0.13508E+00  0.21961E+00  0.00000E+00 -0.14074E+00  0.20223E+00  0.00000E+00 -0.14506E+00
          0.21209E+00  0.00000E+00 -0.15090E+00  0.20462E+00  0.00000E+00 -0.15131E+00  0.19303E+00  0.00000E+00 -0.15325E+00  0.20204E+00  0.00000E+00 -0.15705E+00  0.19894E+00  0.00000E+00 -0.16403E+00  0.19880E+00  0.00000E+00 -0.16561E+00
          0.51561E+00  0.00000E+00 -0.14429E-02  0.53491E+00  0.00000E+00 -0.78381E-02  0.52339E+00  0.00000E+00 -0.36340E-02  0.49285E+00  0.00000E+00 -0.20001E-01  0.48675E+00  0.00000E+00 -0.22387E-01  0.47505E+00  0.00000E+00 -0.17735E-01
          0.47377E+00  0.00000E+00 -0.31538E-01  0.46867E+00  0.00000E+00 -0.34054E-01  0.45865E+00  0.00000E+00 -0.36913E-01  0.44293E+00  0.00000E+00 -0.41509E-01  0.43075E+00  0.00000E+00 -0.43570E-01  0.41356E+00  0.00000E+00 -0.58912E-01
          0.39640E+00  0.00000E+00 -0.72862E-01  0.38217E+00  0.00000E+00 -0.64381E-01  0.37574E+00  0.00000E+00 -0.10792E+00  0.35007E+00  0.00000E+00 -0.96899E-01  0.38079E+00  0.00000E+00 -0.91240E-01  0.33340E+00  0.00000E+00 -0.94070E-01
          0.24910E+00  0.00000E+00 -0.12057E+00  0.31386E+00  0.00000E+00 -0.10647E+00  0.22495E+00  0.00000E+00 -0.13790E+00  0.26867E+00  0.00000E+00 -0.12833E+00  0.24129E+00  0.00000E+00 -0.13516E+00  0.22113E+00  0.00000E+00 -0.14024E+00
          0.23336E+00  0.00000E+00 -0.14619E+00  0.22541E+00  0.00000E+00 -0.14596E+00  0.21243E+00  0.00000E+00 -0.14834E+00  0.22157E+00  0.00000E+00 -0.15231E+00  0.21817E+00  0.00000E+00 -0.15920E+00  0.21792E+00  0.00000E+00 -0.16066E+00
          0.55195E+00  0.00000E+00 -0.12251E-02  0.56778E+00  0.00000E+00 -0.60985E-02  0.55175E+00  0.00000E+00 -0.54738E-02  0.52327E+00  0.00000E+00 -0.19733E-01  0.51899E+00  0.00000E+00 -0.21651E-01  0.50639E+00  0.00000E+00 -0.18171E-01
          0.50550E+00  0.00000E+00 -0.28612E-01  0.49971E+00  0.00000E+00 -0.32981E-01  0.48851E+00  0.00000E+00 -0.37937E-01  0.47690E+00  0.00000E+00 -0.43301E-01  0.46890E+00  0.00000E+00 -0.44721E-01  0.45164E+00  0.00000E+00 -0.53617E-01
          0.44059E+00  0.00000E+00 -0.60548E-01  0.40573E+00  0.00000E+00 -0.61845E-01  0.39619E+00  0.00000E+00 -0.73432E-01  0.35447E+00  0.00000E+00 -0.90506E-01  0.39252E+00  0.00000E+00 -0.84414E-01  0.33993E+00  0.00000E+00 -0.82969E-01
          0.26140E+00  0.00000E+00 -0.10400E+00  0.33290E+00  0.00000E+00 -0.93894E-01  0.24416E+00  0.00000E+00 -0.12708E+00  0.29352E+00  0.00000E+00 -0.12001E+00  0.26345E+00  0.00000E+00 -0.12537E+00  0.23976E+00  0.00000E+00 -0.13157E+00
          0.25401E+00  0.00000E+00 -0.13880E+00  0.24588E+00  0.00000E+00 -0.13733E+00  0.23070E+00  0.00000E+00 -0.14032E+00  0.24147E+00  0.00000E+00 -0.14470E+00  0.23783E+00  0.00000E+00 -0.15145E+00  0.23747E+00  0.00000E+00 -0.15298E+00
          0.58682E+00  0.00000E+00 -0.77498E-03  0.60060E+00  0.00000E+00 -0.49722E-02  0.58665E+00  0.00000E+00 -0.79690E-02  0.55714E+00  0.00000E+00 -0.19923E-01  0.55569E+00  0.00000E+00 -0.23357E-01  0.53933E+00  0.00000E+00 -0.20892E-01
          0.53828E+00  0.00000E+00 -0.28766E-01  0.53174E+00  0.00000E+00 -0.34642E-01  0.52171E+00  0.00000E+00 -0.37425E-01  0.50874E+00  0.00000E+00 -0.43587E-01  0.49776E+00  0.00000E+00 -0.47842E-01  0.48287E+00  0.00000E+00 -0.52475E-01
          0.46944E+00  0.00000E+00 -0.52738E-01  0.44616E+00  0.00000E+00 -0.69093E-01  0.42625E+00  0.00000E+00 -0.56165E-01  0.40007E+00  0.00000E+00 -0.83343E-01  0.37129E+00  0.00000E+00 -0.86987E-01  0.35877E+00  0.00000E+00 -0.74776E-01
          0.27565E+00  0.00000E+00 -0.94395E-01  0.35734E+00  0.00000E+00 -0.90506E-01  0.26783E+00  0.00000E+00 -0.11811E+00  0.32126E+00  0.00000E+00 -0.11303E+00  0.29299E+00  0.00000E+00 -0.11813E+00  0.26379E+00  0.00000E+00 -0.12490E+00
          0.27797E+00  0.00000E+00 -0.13298E+00  0.26883E+00  0.00000E+00 -0.13083E+00  0.25132E+00  0.00000E+00 -0.13474E+00  0.26297E+00  0.00000E+00 -0.13922E+00  0.25866E+00  0.00000E+00 -0.14625E+00  0.25817E+00  0.00000E+00 -0.14823E+00
          0.62179E+00  0.00000E+00 -0.35384E-03  0.63653E+00  0.00000E+00 -0.56693E-02  0.62426E+00  0.00000E+00 -0.79292E-02  0.59579E+00  0.00000E+00 -0.19705E-01  0.59892E+00  0.00000E+00 -0.25716E-01  0.57630E+00  0.00000E+00 -0.23957E-01
          0.57312E+00  0.00000E+00 -0.30105E-01  0.56567E+00  0.00000E+00 -0.38690E-01  0.55634E+00  0.00000E+00 -0.40594E-01  0.54252E+00  0.00000E+00 -0.44444E-01  0.53178E+00  0.00000E+00 -0.48639E-01  0.51684E+00  0.00000E+00 -0.53802E-01
          0.50317E+00  0.00000E+00 -0.53323E-01  0.48051E+00  0.00000E+00 -0.68344E-01  0.45503E+00  0.00000E+00 -0.66308E-01  0.43738E+00  0.00000E+00 -0.60640E-01  0.39252E+00  0.00000E+00 -0.89417E-01  0.37530E+00  0.00000E+00 -0.77751E-01
          0.29760E+00  0.00000E+00 -0.96449E-01  0.37970E+00  0.00000E+00 -0.99460E-01  0.29375E+00  0.00000E+00 -0.12462E+00  0.35462E+00  0.00000E+00 -0.12121E+00  0.32498E+00  0.00000E+00 -0.12181E+00  0.29160E+00  0.00000E+00 -0.13155E+00
          0.30419E+00  0.00000E+00 -0.14032E+00  0.29295E+00  0.00000E+00 -0.13542E+00  0.27408E+00  0.00000E+00 -0.14119E+00  0.28547E+00  0.00000E+00 -0.14605E+00  0.28001E+00  0.00000E+00 -0.15238E+00  0.27945E+00  0.00000E+00 -0.15438E+00
          0.65881E+00  0.00000E+00 -0.20400E-03  0.66118E+00  0.00000E+00 -0.10196E-02  0.67648E+00  0.00000E+00 -0.65346E-02  0.63254E+00  0.00000E+00 -0.10218E-01  0.65425E+00  0.00000E+00 -0.32135E-01  0.61848E+00  0.00000E+00 -0.21559E-01