<?xml version="1.0"?>
<VTKFile type="UnstructuredGrid" version="0.1" byte_order="LittleEndian" compressor="vtkZLibDataCompressor">
<UnstructuredGrid>
  <Piece NumberOfPoints="1800"        NumberOfCells="1"      >
    <Points>
      <DataArray type="Float32" NumberOfComponents="3" format="ascii" >
        0.40167E-01  0.00000E+00  0.24891E-02  0.26096E-01  0.00000E+00  0.39776E-02  0.11228E-01  0.00000E+00  0.45673E-02  0.19098E-01  0.00000E+00  0.10260E-01  0.68508E-02  0.00000E+00  0.11991E-01  0.88460E-02  0.00000E+00  0.18537E-01
        0.80774E-02  0.00000E+00  0.24343E-01  0.98904E-02  0.00000E+00  0.30342E-01  0.80819E-02  0.00000E+00  0.36482E-01  0.89422E-02  0.00000E+00  0.42844E-01  0.83411E-02  0.00000E+00  0.49081E-01  0.10019E-01  0.00000E+00  0.55005E-01
        0.98284E-02  0.00000E+00  0.60649E-01  0.11044E-01  0.00000E+00  0.66076E-01  0.11043E-01  0.00000E+00  0.71154E-01  0.11486E-01  0.00000E+00  0.76135E-01  0.11445E-01  0.00000E+00  0.80946E-01  0.11423E-01  0.00000E+00  0.85761E-01
        0.11213E-01  0.00000E+00  0.90587E-01  0.11006E-01  0.00000E+00  0.95472E-01  0.10718E-01  0.00000E+00  0.10037E+00  0.10407E-01  0.00000E+00  0.10532E+00  0.10104E-01  0.00000E+00  0.11039E+00  0.97985E-02  0.00000E+00  0.11554E+00
        0.93125E-02  0.00000E+00  0.12064E+00  0.87300E-02  0.00000E+00  0.12582E+00  0.87681E-02  0.00000E+00  0.13158E+00  0.89075E-02  0.00000E+00  0.13763E+00  0.69071E-02  0.00000E+00  0.14261E+00  0.71202E-02  0.00000E+00  0.14650E+00
        0.53872E-01  0.00000E+00  0.35973E-02  0.32893E-01  0.00000E+00  0.10735E-01  0.47321E-01  0.00000E+00  0.11157E-01  0.39945E-01  0.00000E+00  0.16878E-01  0.24190E-01  0.00000E+00  0.17043E-01  0.34536E-01  0.00000E+00  0.23747E-01
        0.21645E-01  0.00000E+00  0.24724E-01  0.32100E-01  0.00000E+00  0.31256E-01  0.21315E-01  0.00000E+00  0.34031E-01  0.31548E-01  0.00000E+00  0.39824E-01  0.21122E-01  0.00000E+00  0.43732E-01  0.31278E-01  0.00000E+00  0.48650E-01
        0.21877E-01  0.00000E+00  0.53566E-01  0.32187E-01  0.00000E+00  0.58125E-01  0.24017E-01  0.00000E+00  0.63655E-01  0.32229E-01  0.00000E+00  0.68182E-01  0.27490E-01  0.00000E+00  0.73849E-01  0.30631E-01  0.00000E+00  0.79395E-01
        0.29326E-01  0.00000E+00  0.84881E-01  0.29444E-01  0.00000E+00  0.90571E-01  0.28923E-01  0.00000E+00  0.96261E-01  0.28489E-01  0.00000E+00  0.10192E+00  0.27930E-01  0.00000E+00  0.10750E+00  0.27457E-01  0.00000E+00  0.11340E+00
        0.26698E-01  0.00000E+00  0.11933E+00  0.26699E-01  0.00000E+00  0.12450E+00  0.25017E-01  0.00000E+00  0.13043E+00  0.25658E-01  0.00000E+00  0.13767E+00  0.23814E-01  0.00000E+00  0.14185E+00  0.24127E-01  0.00000E+00  0.14607E+00
        0.71043E-01  0.00000E+00  0.33858E-02  0.61591E-01  0.00000E+00  0.95120E-02  0.77634E-01  0.00000E+00  0.10927E-01  0.67685E-01  0.00000E+00  0.16280E-01  0.53604E-01  0.00000E+00  0.18569E-01  0.61984E-01  0.00000E+00  0.23723E-01
        0.46582E-01  0.00000E+00  0.25944E-01  0.56442E-01  0.00000E+00  0.30900E-01  0.43615E-01  0.00000E+00  0.34234E-01  0.54166E-01  0.00000E+00  0.39262E-01  0.42646E-01  0.00000E+00  0.43168E-01  0.53258E-01  0.00000E+00  0.48149E-01
        0.42124E-01  0.00000E+00  0.52395E-01  0.52659E-01  0.00000E+00  0.57433E-01  0.42932E-01  0.00000E+00  0.62234E-01  0.51641E-01  0.00000E+00  0.67311E-01  0.45338E-01  0.00000E+00  0.72609E-01  0.49374E-01  0.00000E+00  0.78225E-01
        0.47166E-01  0.00000E+00  0.83735E-01  0.47515E-01  0.00000E+00  0.89530E-01  0.46721E-01  0.00000E+00  0.95298E-01  0.46334E-01  0.00000E+00  0.10106E+00  0.45516E-01  0.00000E+00  0.10674E+00  0.45095E-01  0.00000E+00  0.11271E+00
        0.44201E-01  0.00000E+00  0.11869E+00  0.43681E-01  0.00000E+00  0.12404E+00  0.42873E-01  0.00000E+00  0.13013E+00  0.42450E-01  0.00000E+00  0.13723E+00  0.41244E-01  0.00000E+00  0.14136E+00  0.41277E-01  0.00000E+00  0.14581E+00
        0.10347E+00  0.00000E+00  0.33831E-02  0.86480E-01  0.00000E+00  0.58762E-02  0.95506E-01  0.00000E+00  0.10376E-01  0.92175E-01  0.00000E+00  0.18246E-01  0.79701E-01  0.00000E+00  0.19432E-01  0.86832E-01  0.00000E+00  0.25793E-01
        0.72409E-01  0.00000E+00  0.26664E-01  0.81096E-01  0.00000E+00  0.33151E-01  0.67417E-01  0.00000E+00  0.34766E-01  0.77018E-01  0.00000E+00  0.40839E-01  0.64795E-01  0.00000E+00  0.43420E-01  0.74964E-01  0.00000E+00  0.49406E-01
        0.63498E-01  0.00000E+00  0.52641E-01  0.73510E-01  0.00000E+00  0.58567E-01  0.62840E-01  0.00000E+00  0.62424E-01  0.71547E-01  0.00000E+00  0.67972E-01  0.64083E-01  0.00000E+00  0.72494E-01  0.68228E-01  0.00000E+00  0.78337E-01
        0.65355E-01  0.00000E+00  0.83731E-01  0.65747E-01  0.00000E+00  0.89500E-01  0.64553E-01  0.00000E+00  0.95222E-01  0.64291E-01  0.00000E+00  0.10099E+00  0.63251E-01  0.00000E+00  0.10662E+00  0.62716E-01  0.00000E+00  0.11259E+00
        0.61904E-01  0.00000E+00  0.11852E+00  0.61082E-01  0.00000E+00  0.12376E+00  0.60556E-01  0.00000E+00  0.12986E+00  0.59719E-01  0.00000E+00  0.13693E+00  0.59893E-01  0.00000E+00  0.14100E+00  0.59431E-01  0.00000E+00  0.14535E+00
        0.12948E+00  0.00000E+00  0.33954E-02  0.11644E+00  0.00000E+00  0.66412E-02  0.10741E+00  0.00000E+00  0.12808E-01  0.11790E+00  0.00000E+00  0.17328E-01  0.10451E+00  0.00000E+00  0.21303E-01  0.11448E+00  0.00000E+00  0.25646E-01
        0.97931E-01  0.00000E+00  0.27594E-01  0.10677E+00  0.00000E+00  0.33128E-01  0.92628E-01  0.00000E+00  0.35864E-01  0.10122E+00  0.00000E+00  0.41539E-01  0.87851E-01  0.00000E+00  0.44012E-01  0.96816E-01  0.00000E+00  0.49894E-01
        0.85163E-01  0.00000E+00  0.53046E-01  0.94184E-01  0.00000E+00  0.59342E-01  0.83526E-01  0.00000E+00  0.62823E-01  0.91103E-01  0.00000E+00  0.68934E-01  0.83544E-01  0.00000E+00  0.73072E-01  0.86819E-01  0.00000E+00  0.79255E-01
        0.83661E-01  0.00000E+00  0.84472E-01  0.83885E-01  0.00000E+00  0.90256E-01  0.82556E-01  0.00000E+00  0.95969E-01  0.82150E-01  0.00000E+00  0.10168E+00  0.81135E-01  0.00000E+00  0.10729E+00  0.80436E-01  0.00000E+00  0.11319E+00
        0.79641E-01  0.00000E+00  0.11904E+00  0.78987E-01  0.00000E+00  0.12424E+00  0.78225E-01  0.00000E+00  0.13026E+00  0.77785E-01  0.00000E+00  0.13724E+00  0.77138E-01  0.00000E+00  0.14114E+00  0.77147E-01  0.00000E+00  0.14555E+00
        0.14886E+00  0.00000E+00  0.32866E-02  0.13969E+00  0.00000E+00  0.87700E-02  0.12677E+00  0.00000E+00  0.12536E-01  0.14914E+00  0.00000E+00  0.14609E-01  0.13530E+00  0.00000E+00  0.17824E-01  0.14375E+00  0.00000E+00  0.22379E-01
        0.12733E+00  0.00000E+00  0.23789E-01  0.12911E+00  0.00000E+00  0.32086E-01  0.11837E+00  0.00000E+00  0.33776E-01  0.12354E+00  0.00000E+00  0.41245E-01  0.11135E+00  0.00000E+00  0.42827E-01  0.11603E+00  0.00000E+00  0.50712E-01
        0.10610E+00  0.00000E+00  0.53546E-01  0.11344E+00  0.00000E+00  0.61013E-01  0.10373E+00  0.00000E+00  0.63993E-01  0.10979E+00  0.00000E+00  0.70661E-01  0.10279E+00  0.00000E+00  0.74579E-01  0.10505E+00  0.00000E+00  0.80997E-01
        0.10165E+00  0.00000E+00  0.86024E-01  0.10209E+00  0.00000E+00  0.91901E-01  0.10029E+00  0.00000E+00  0.97507E-01  0.10019E+00  0.00000E+00  0.10319E+00  0.99051E-01  0.00000E+00  0.10874E+00  0.98290E-01  0.00000E+00  0.11462E+00
        0.97743E-01  0.00000E+00  0.12039E+00  0.96880E-01  0.00000E+00  0.12540E+00  0.96256E-01  0.00000E+00  0.13148E+00  0.95920E-01  0.00000E+00  0.13845E+00  0.95782E-01  0.00000E+00  0.14206E+00  0.95544E-01  0.00000E+00  0.14636E+00
        0.16864E+00  0.00000E+00  0.31288E-02  0.17885E+00  0.00000E+00  0.78008E-02  0.15897E+00  0.00000E+00  0.87850E-02  0.17498E+00  0.00000E+00  0.15231E-01  0.16241E+00  0.00000E+00  0.16512E-01  0.16973E+00  0.00000E+00  0.22341E-01
        0.15695E+00  0.00000E+00  0.23999E-01  0.15109E+00  0.00000E+00  0.29986E-01  0.13956E+00  0.00000E+00  0.30706E-01  0.13836E+00  0.00000E+00  0.39023E-01  0.13588E+00  0.00000E+00  0.46712E-01  0.12683E+00  0.00000E+00  0.49994E-01
        0.13538E+00  0.00000E+00  0.57480E-01  0.12410E+00  0.00000E+00  0.59727E-01  0.13117E+00  0.00000E+00  0.66442E-01  0.12414E+00  0.00000E+00  0.70038E-01  0.12326E+00  0.00000E+00  0.76597E-01  0.12241E+00  0.00000E+00  0.82119E-01
        0.11992E+00  0.00000E+00  0.87469E-01  0.12046E+00  0.00000E+00  0.93378E-01  0.11839E+00  0.00000E+00  0.98828E-01  0.11852E+00  0.00000E+00  0.10448E+00  0.11741E+00  0.00000E+00  0.10998E+00  0.11657E+00  0.00000E+00  0.11580E+00
        0.11619E+00  0.00000E+00  0.12151E+00  0.11556E+00  0.00000E+00  0.12641E+00  0.11476E+00  0.00000E+00  0.13248E+00  0.11473E+00  0.00000E+00  0.13943E+00  0.11419E+00  0.00000E+00  0.14281E+00  0.11408E+00  0.00000E+00  0.14709E+00
        0.19045E+00  0.00000E+00  0.33269E-02  0.20120E+00  0.00000E+00  0.86542E-02  0.19067E+00  0.00000E+00  0.12753E-01  0.21090E+00  0.00000E+00  0.13724E-01  0.19921E+00  0.00000E+00  0.19127E-01  0.18562E+00  0.00000E+00  0.19983E-01
        0.18082E+00  0.00000E+00  0.27304E-01  0.16833E+00  0.00000E+00  0.30642E-01  0.16229E+00  0.00000E+00  0.36654E-01  0.15136E+00  0.00000E+00  0.38534E-01  0.15616E+00  0.00000E+00  0.46394E-01  0.14580E+00  0.00000E+00  0.48573E-01
        0.15462E+00  0.00000E+00  0.55881E-01  0.14513E+00  0.00000E+00  0.59151E-01  0.15036E+00  0.00000E+00  0.66270E-01  0.14386E+00  0.00000E+00  0.70134E-01  0.14148E+00  0.00000E+00  0.76301E-01  0.14122E+00  0.00000E+00  0.81946E-01
        0.13865E+00  0.00000E+00  0.87104E-01  0.13914E+00  0.00000E+00  0.93000E-01  0.13713E+00  0.00000E+00  0.98495E-01  0.13724E+00  0.00000E+00  0.10406E+00  0.13629E+00  0.00000E+00  0.10959E+00  0.13535E+00  0.00000E+00  0.11535E+00
        0.13517E+00  0.00000E+00  0.12101E+00  0.13451E+00  0.00000E+00  0.12590E+00  0.13366E+00  0.00000E+00  0.13199E+00  0.13381E+00  0.00000E+00  0.13889E+00  0.13336E+00  0.00000E+00  0.14221E+00  0.13311E+00  0.00000E+00  0.14653E+00
[...]
<PointData>
      <DataArray type="Float32" Name="Velocity vectors"  NumberOfComponents="3"  format="ascii" >
          0.83532E-01  0.00000E+00 -0.46162E-03  0.73170E-01  0.00000E+00 -0.67306E-03  0.61950E-01  0.00000E+00 -0.17748E-01  0.61225E-01  0.00000E+00 -0.15379E-01 -0.62812E-02  0.00000E+00 -0.52290E-01  0.13695E-01  0.00000E+00 -0.53133E-01
          0.38323E-02  0.00000E+00 -0.62676E-01  0.27090E-01  0.00000E+00 -0.73584E-01 -0.13140E-02  0.00000E+00 -0.80569E-01  0.49817E-02  0.00000E+00 -0.79966E-01 -0.93371E-02  0.00000E+00 -0.80201E-01  0.44051E-02  0.00000E+00 -0.80763E-01
         -0.11705E-01  0.00000E+00 -0.77316E-01  0.86043E-02  0.00000E+00 -0.73689E-01  0.41748E-02  0.00000E+00 -0.72515E-01  0.15964E-01  0.00000E+00 -0.70737E-01  0.18079E-01  0.00000E+00 -0.73749E-01  0.21890E-01  0.00000E+00 -0.78343E-01
          0.22986E-01  0.00000E+00 -0.83604E-01  0.23602E-01  0.00000E+00 -0.88354E-01  0.22344E-01  0.00000E+00 -0.94120E-01  0.21827E-01  0.00000E+00 -0.99714E-01  0.21573E-01  0.00000E+00 -0.10474E+00  0.20138E-01  0.00000E+00 -0.11127E+00
          0.16197E-01  0.00000E+00 -0.11963E+00  0.14425E-01  0.00000E+00 -0.12547E+00  0.16912E-01  0.00000E+00 -0.12873E+00  0.10495E-01  0.00000E+00 -0.13608E+00  0.43793E-02  0.00000E+00 -0.14722E+00  0.51779E-02  0.00000E+00 -0.15339E+00
          0.10462E+00  0.00000E+00 -0.30497E-02  0.78557E-01  0.00000E+00 -0.55086E-02  0.87883E-01  0.00000E+00 -0.11883E-01  0.86058E-01  0.00000E+00 -0.11762E-01  0.49772E-01  0.00000E+00 -0.21987E-01  0.44407E-01  0.00000E+00 -0.32591E-01
          0.19157E-01  0.00000E+00 -0.39764E-01  0.33642E-01  0.00000E+00 -0.41102E-01  0.19957E-01  0.00000E+00 -0.48056E-01  0.26795E-01  0.00000E+00 -0.50877E-01  0.91704E-02  0.00000E+00 -0.61544E-01  0.16368E-01  0.00000E+00 -0.60490E-01
          0.95220E-03  0.00000E+00 -0.71920E-01  0.22222E-01  0.00000E+00 -0.78140E-01 -0.22679E-01  0.00000E+00 -0.84627E-01  0.52779E-01  0.00000E+00 -0.10055E+00 -0.23744E-01  0.00000E+00 -0.10647E+00  0.60679E-01  0.00000E+00 -0.11995E+00
          0.30808E-01  0.00000E+00 -0.12198E+00  0.47463E-01  0.00000E+00 -0.12545E+00  0.42929E-01  0.00000E+00 -0.13038E+00  0.42817E-01  0.00000E+00 -0.13423E+00  0.39973E-01  0.00000E+00 -0.13767E+00  0.39778E-01  0.00000E+00 -0.13965E+00
          0.34590E-01  0.00000E+00 -0.14440E+00  0.39790E-01  0.00000E+00 -0.15027E+00  0.27913E-01  0.00000E+00 -0.14948E+00  0.31406E-01  0.00000E+00 -0.15311E+00  0.25993E-01  0.00000E+00 -0.16472E+00  0.26651E-01  0.00000E+00 -0.16677E+00
          0.11157E+00  0.00000E+00 -0.14879E-02  0.10665E+00  0.00000E+00 -0.42289E-02  0.13801E+00  0.00000E+00 -0.17600E-01  0.13121E+00  0.00000E+00 -0.18386E-01  0.10549E+00  0.00000E+00 -0.22275E-01  0.10300E+00  0.00000E+00 -0.26486E-01
          0.67685E-01  0.00000E+00 -0.34196E-01  0.67783E-01  0.00000E+00 -0.43742E-01  0.41199E-01  0.00000E+00 -0.47622E-01  0.52283E-01  0.00000E+00 -0.56347E-01  0.38112E-01  0.00000E+00 -0.58242E-01  0.49238E-01  0.00000E+00 -0.66487E-01
          0.36256E-01  0.00000E+00 -0.71690E-01  0.56964E-01  0.00000E+00 -0.81675E-01  0.19574E-01  0.00000E+00 -0.88660E-01  0.87900E-01  0.00000E+00 -0.96803E-01 -0.38377E-03  0.00000E+00 -0.11314E+00  0.97619E-01  0.00000E+00 -0.12961E+00
          0.42453E-01  0.00000E+00 -0.13315E+00  0.70448E-01  0.00000E+00 -0.13536E+00  0.58868E-01  0.00000E+00 -0.14243E+00  0.61507E-01  0.00000E+00 -0.14571E+00  0.53849E-01  0.00000E+00 -0.14931E+00  0.55789E-01  0.00000E+00 -0.15167E+00
          0.49605E-01  0.00000E+00 -0.15717E+00  0.49035E-01  0.00000E+00 -0.16166E+00  0.44874E-01  0.00000E+00 -0.16030E+00  0.44034E-01  0.00000E+00 -0.16468E+00  0.40390E-01  0.00000E+00 -0.17303E+00  0.41330E-01  0.00000E+00 -0.17478E+00
          0.17261E+00  0.00000E+00 -0.35422E-03  0.14457E+00  0.00000E+00 -0.54869E-02  0.15726E+00  0.00000E+00 -0.15318E-01  0.13895E+00  0.00000E+00 -0.21698E-01  0.13282E+00  0.00000E+00 -0.16118E-01  0.13504E+00  0.00000E+00 -0.22507E-01
          0.10977E+00  0.00000E+00 -0.31333E-01  0.10793E+00  0.00000E+00 -0.36820E-01  0.78480E-01  0.00000E+00 -0.45791E-01  0.86307E-01  0.00000E+00 -0.52790E-01  0.66497E-01  0.00000E+00 -0.59818E-01  0.84029E-01  0.00000E+00 -0.66031E-01
          0.69279E-01  0.00000E+00 -0.76988E-01  0.94350E-01  0.00000E+00 -0.81813E-01  0.60074E-01  0.00000E+00 -0.93864E-01  0.12395E+00  0.00000E+00 -0.95590E-01  0.39079E-01  0.00000E+00 -0.11887E+00  0.13591E+00  0.00000E+00 -0.12979E+00
          0.65246E-01  0.00000E+00 -0.13994E+00  0.96615E-01  0.00000E+00 -0.13994E+00  0.75033E-01  0.00000E+00 -0.14958E+00  0.82667E-01  0.00000E+00 -0.15220E+00  0.71173E-01  0.00000E+00 -0.15641E+00  0.72034E-01  0.00000E+00 -0.15933E+00
          0.67485E-01  0.00000E+00 -0.16474E+00  0.62860E-01  0.00000E+00 -0.17021E+00  0.60949E-01  0.00000E+00 -0.16924E+00  0.57570E-01  0.00000E+00 -0.17340E+00  0.58978E-01  0.00000E+00 -0.18170E+00  0.57457E-01  0.00000E+00 -0.18367E+00
          0.20555E+00  0.00000E+00 -0.76088E-04  0.18910E+00  0.00000E+00 -0.77241E-02  0.17016E+00  0.00000E+00 -0.13012E-01  0.17572E+00  0.00000E+00 -0.20626E-01  0.15084E+00  0.00000E+00 -0.21224E-01  0.16102E+00  0.00000E+00 -0.29224E-01
          0.13906E+00  0.00000E+00 -0.31062E-01  0.15452E+00  0.00000E+00 -0.43974E-01  0.12555E+00  0.00000E+00 -0.39089E-01  0.14343E+00  0.00000E+00 -0.52971E-01  0.10747E+00  0.00000E+00 -0.59147E-01  0.12999E+00  0.00000E+00 -0.71334E-01
          0.10826E+00  0.00000E+00 -0.81462E-01  0.14015E+00  0.00000E+00 -0.89260E-01  0.10295E+00  0.00000E+00 -0.10268E+00  0.16793E+00  0.00000E+00 -0.10598E+00  0.81867E-01  0.00000E+00 -0.13293E+00  0.16964E+00  0.00000E+00 -0.13150E+00
          0.93677E-01  0.00000E+00 -0.14927E+00  0.11939E+00  0.00000E+00 -0.14710E+00  0.95334E-01  0.00000E+00 -0.15550E+00  0.10053E+00  0.00000E+00 -0.15872E+00  0.90244E-01  0.00000E+00 -0.16189E+00  0.88290E-01  0.00000E+00 -0.16481E+00
          0.83578E-01  0.00000E+00 -0.16990E+00  0.80542E-01  0.00000E+00 -0.17411E+00  0.76160E-01  0.00000E+00 -0.17366E+00  0.74484E-01  0.00000E+00 -0.17765E+00  0.72402E-01  0.00000E+00 -0.18542E+00  0.72849E-01  0.00000E+00 -0.18723E+00
          0.22067E+00  0.00000E+00 -0.15824E-02  0.20740E+00  0.00000E+00 -0.92867E-02  0.19114E+00  0.00000E+00 -0.62889E-02  0.24112E+00  0.00000E+00 -0.24585E-01  0.20292E+00  0.00000E+00 -0.16480E-01  0.22344E+00  0.00000E+00 -0.42700E-01
          0.17952E+00  0.00000E+00 -0.26804E-01  0.19410E+00  0.00000E+00 -0.31833E-01  0.17495E+00  0.00000E+00 -0.45390E-01  0.19134E+00  0.00000E+00 -0.57132E-01  0.16109E+00  0.00000E+00 -0.62599E-01  0.17330E+00  0.00000E+00 -0.73663E-01
          0.15386E+00  0.00000E+00 -0.91706E-01  0.18253E+00  0.00000E+00 -0.84860E-01  0.14378E+00  0.00000E+00 -0.11132E+00  0.20866E+00  0.00000E+00 -0.10705E+00  0.12251E+00  0.00000E+00 -0.14469E+00  0.19057E+00  0.00000E+00 -0.13147E+00
          0.11247E+00  0.00000E+00 -0.15512E+00  0.13998E+00  0.00000E+00 -0.14982E+00  0.10603E+00  0.00000E+00 -0.15943E+00  0.11743E+00  0.00000E+00 -0.16193E+00  0.10389E+00  0.00000E+00 -0.16517E+00  0.10060E+00  0.00000E+00 -0.16735E+00
          0.99046E-01  0.00000E+00 -0.17247E+00  0.92787E-01  0.00000E+00 -0.17610E+00  0.89583E-01  0.00000E+00 -0.17490E+00  0.88275E-01  0.00000E+00 -0.17930E+00  0.88198E-01  0.00000E+00 -0.18656E+00  0.87503E-01  0.00000E+00 -0.18746E+00
          0.27355E+00  0.00000E+00 -0.23186E-02  0.30283E+00  0.00000E+00 -0.13824E-01  0.24848E+00  0.00000E+00 -0.20419E-01  0.26958E+00  0.00000E+00 -0.26267E-01  0.26334E+00  0.00000E+00 -0.25125E-01  0.26321E+00  0.00000E+00 -0.35606E-01
          0.24204E+00  0.00000E+00 -0.36918E-01  0.21911E+00  0.00000E+00 -0.56822E-01  0.19725E+00  0.00000E+00 -0.60564E-01  0.21522E+00  0.00000E+00 -0.57389E-01  0.20660E+00  0.00000E+00 -0.55347E-01  0.18951E+00  0.00000E+00 -0.75036E-01
          0.22246E+00  0.00000E+00 -0.77755E-01  0.18426E+00  0.00000E+00 -0.10095E+00  0.25042E+00  0.00000E+00 -0.94638E-01  0.17982E+00  0.00000E+00 -0.13690E+00  0.18115E+00  0.00000E+00 -0.12353E+00  0.17701E+00  0.00000E+00 -0.12403E+00
          0.12164E+00  0.00000E+00 -0.13704E+00  0.15856E+00  0.00000E+00 -0.13067E+00  0.11509E+00  0.00000E+00 -0.14416E+00  0.13374E+00  0.00000E+00 -0.14442E+00  0.11778E+00  0.00000E+00 -0.14910E+00  0.11195E+00  0.00000E+00 -0.15178E+00
          0.11267E+00  0.00000E+00 -0.15699E+00  0.10865E+00  0.00000E+00 -0.16106E+00  0.10350E+00  0.00000E+00 -0.16004E+00  0.10587E+00  0.00000E+00 -0.16379E+00  0.10487E+00  0.00000E+00 -0.17302E+00  0.10509E+00  0.00000E+00 -0.17429E+00
          0.31250E+00  0.00000E+00 -0.42764E-03  0.32379E+00  0.00000E+00 -0.10548E-01  0.30868E+00  0.00000E+00 -0.70925E-02  0.33620E+00  0.00000E+00 -0.15862E-01  0.32084E+00  0.00000E+00 -0.24746E-01  0.28600E+00  0.00000E+00 -0.25732E-01
          0.27084E+00  0.00000E+00 -0.44138E-01  0.24309E+00  0.00000E+00 -0.39779E-01  0.21525E+00  0.00000E+00 -0.60093E-01  0.20321E+00  0.00000E+00 -0.53924E-01  0.24938E+00  0.00000E+00 -0.66081E-01  0.22391E+00  0.00000E+00 -0.80385E-01
          0.25772E+00  0.00000E+00 -0.73935E-01  0.23016E+00  0.00000E+00 -0.98078E-01  0.28962E+00  0.00000E+00 -0.90185E-01  0.21774E+00  0.00000E+00 -0.12861E+00  0.18168E+00  0.00000E+00 -0.12144E+00  0.19821E+00  0.00000E+00 -0.11592E+00
          0.14297E+00  0.00000E+00 -0.13763E+00  0.17762E+00  0.00000E+00 -0.13005E+00  0.13577E+00  0.00000E+00 -0.13924E+00  0.15240E+00  0.00000E+00 -0.14282E+00  0.14005E+00  0.00000E+00 -0.14362E+00  0.13163E+00  0.00000E+00 -0.14753E+00
          0.13516E+00  0.00000E+00 -0.15302E+00  0.13006E+00  0.00000E+00 -0.15610E+00  0.12378E+00  0.00000E+00 -0.15590E+00  0.12770E+00  0.00000E+00 -0.15972E+00  0.12670E+00  0.00000E+00 -0.16907E+00  0.12612E+00  0.00000E+00 -0.17053E+00
          0.33779E+00  0.00000E+00 -0.40271E-04  0.35557E+00  0.00000E+00 -0.12923E-01  0.35867E+00  0.00000E+00 -0.55279E-02  0.38971E+00  0.00000E+00 -0.24787E-01  0.34694E+00  0.00000E+00 -0.27336E-01  0.33589E+00  0.00000E+00 -0.18389E-01
          0.30466E+00  0.00000E+00 -0.44000E-01  0.29447E+00  0.00000E+00 -0.40735E-01  0.27115E+00  0.00000E+00 -0.57019E-01  0.25130E+00  0.00000E+00 -0.63071E-01  0.27577E+00  0.00000E+00 -0.65261E-01  0.25065E+00  0.00000E+00 -0.81194E-01
          0.27919E+00  0.00000E+00 -0.86281E-01  0.24680E+00  0.00000E+00 -0.10175E+00  0.26686E+00  0.00000E+00 -0.83864E-01  0.27953E+00  0.00000E+00 -0.70918E-01  0.18165E+00  0.00000E+00 -0.12442E+00  0.23629E+00  0.00000E+00 -0.10384E+00
          0.15510E+00  0.00000E+00 -0.13648E+00  0.19745E+00  0.00000E+00 -0.13116E+00  0.14822E+00  0.00000E+00 -0.14085E+00  0.16958E+00  0.00000E+00 -0.14251E+00  0.15515E+00  0.00000E+00 -0.14449E+00  0.14787E+00  0.00000E+00 -0.14731E+00
          0.15299E+00  0.00000E+00 -0.15212E+00  0.14870E+00  0.00000E+00 -0.15490E+00  0.14306E+00  0.00000E+00 -0.15397E+00  0.14802E+00  0.00000E+00 -0.15801E+00  0.14704E+00  0.00000E+00 -0.16711E+00  0.14674E+00  0.00000E+00 -0.16802E+00
          0.37479E+00  0.00000E+00  0.16749E-03  0.37635E+00  0.00000E+00 -0.83446E-02  0.43447E+00  0.00000E+00 -0.20222E-01  0.40997E+00  0.00000E+00 -0.24399E-01  0.40969E+00  0.00000E+00 -0.36127E-01  0.39107E+00  0.00000E+00 -0.35207E-01
          0.36026E+00  0.00000E+00 -0.47516E-01  0.35083E+00  0.00000E+00 -0.35249E-01  0.31823E+00  0.00000E+00 -0.55096E-01  0.30593E+00  0.00000E+00 -0.50229E-01  0.28076E+00  0.00000E+00 -0.72051E-01  0.28142E+00  0.00000E+00 -0.71342E-01
          0.27572E+00  0.00000E+00 -0.73190E-01  0.30009E+00  0.00000E+00 -0.69538E-01  0.24316E+00  0.00000E+00 -0.94546E-01  0.32054E+00  0.00000E+00 -0.96256E-01  0.23311E+00  0.00000E+00 -0.13172E+00  0.27508E+00  0.00000E+00 -0.10996E+00
          0.19520E+00  0.00000E+00 -0.13730E+00  0.21730E+00  0.00000E+00 -0.12788E+00  0.17191E+00  0.00000E+00 -0.14144E+00  0.18508E+00  0.00000E+00 -0.14330E+00  0.17361E+00  0.00000E+00 -0.14507E+00  0.16498E+00  0.00000E+00 -0.14895E+00
          0.17084E+00  0.00000E+00 -0.15417E+00  0.16772E+00  0.00000E+00 -0.15738E+00  0.16142E+00  0.00000E+00 -0.15698E+00  0.16849E+00  0.00000E+00 -0.16093E+00  0.16729E+00  0.00000E+00 -0.17010E+00  0.16705E+00  0.00000E+00 -0.17135E+00
          0.39460E+00  0.00000E+00 -0.27191E-02  0.44151E+00  0.00000E+00 -0.12467E-01  0.46216E+00  0.00000E+00 -0.10738E-01  0.44062E+00  0.00000E+00 -0.19877E-01  0.43019E+00  0.00000E+00 -0.24857E-01  0.41583E+00  0.00000E+00 -0.24282E-01
          0.40851E+00  0.00000E+00 -0.40059E-01  0.40045E+00  0.00000E+00 -0.44580E-01  0.37670E+00  0.00000E+00 -0.62884E-01  0.36230E+00  0.00000E+00 -0.56020E-01  0.33758E+00  0.00000E+00 -0.70655E-01  0.31478E+00  0.00000E+00 -0.81497E-01
          0.29458E+00  0.00000E+00 -0.87529E-01  0.32976E+00  0.00000E+00 -0.83289E-01  0.28165E+00  0.00000E+00 -0.11419E+00  0.33846E+00  0.00000E+00 -0.10311E+00  0.27149E+00  0.00000E+00 -0.12036E+00  0.28006E+00  0.00000E+00 -0.10625E+00
          0.21057E+00  0.00000E+00 -0.13065E+00  0.24387E+00  0.00000E+00 -0.12010E+00  0.19187E+00  0.00000E+00 -0.13521E+00  0.21045E+00  0.00000E+00 -0.13708E+00  0.19659E+00  0.00000E+00 -0.13933E+00  0.18698E+00  0.00000E+00 -0.14407E+00
          0.19393E+00  0.00000E+00 -0.15005E+00  0.18989E+00  0.00000E+00 -0.15283E+00  0.18267E+00  0.00000E+00 -0.15321E+00  0.18922E+00  0.00000E+00 -0.15744E+00  0.18725E+00  0.00000E+00 -0.16645E+00  0.18697E+00  0.00000E+00 -0.16799E+00
          0.46680E+00  0.00000E+00 -0.21211E-02  0.49098E+00  0.00000E+00 -0.10344E-01  0.49337E+00  0.00000E+00 -0.60815E-02  0.46007E+00  0.00000E+00 -0.19658E-01  0.45464E+00  0.00000E+00 -0.24066E-01  0.44472E+00  0.00000E+00 -0.19959E-01
          0.44144E+00  0.00000E+00 -0.31922E-01  0.43176E+00  0.00000E+00 -0.37319E-01  0.41852E+00  0.00000E+00 -0.48020E-01  0.40324E+00  0.00000E+00 -0.51687E-01  0.38180E+00  0.00000E+00 -0.67784E-01  0.35757E+00  0.00000E+00 -0.83809E-01
          0.34050E+00  0.00000E+00 -0.87284E-01  0.35237E+00  0.00000E+00 -0.76886E-01  0.30735E+00  0.00000E+00 -0.11872E+00  0.34513E+00  0.00000E+00 -0.10538E+00  0.28976E+00  0.00000E+00 -0.11742E+00  0.30044E+00  0.00000E+00 -0.11086E+00
          0.23663E+00  0.00000E+00 -0.13051E+00  0.26538E+00  0.00000E+00 -0.12177E+00  0.21561E+00  0.00000E+00 -0.13644E+00  0.23168E+00  0.00000E+00 -0.13804E+00  0.21802E+00  0.00000E+00 -0.13953E+00  0.20826E+00  0.00000E+00 -0.14429E+00
          0.21402E+00  0.00000E+00 -0.14984E+00  0.21014E+00  0.00000E+00 -0.15240E+00  0.20222E+00  0.00000E+00 -0.15279E+00  0.20885E+00  0.00000E+00 -0.15689E+00  0.20669E+00  0.00000E+00 -0.16545E+00  0.20632E+00  0.00000E+00 -0.16690E+00
          0.50453E+00  0.00000E+00 -0.92403E-03  0.52397E+00  0.00000E+00 -0.93883E-02  0.52151E+00  0.00000E+00 -0.55139E-02  0.49091E+00  0.00000E+00 -0.19026E-01  0.48579E+00  0.00000E+00 -0.22715E-01  0.47394E+00  0.00000E+00 -0.19522E-01
          0.47299E+00  0.00000E+00 -0.32108E-01  0.46590E+00  0.00000E+00 -0.35324E-01  0.45359E+00  0.00000E+00 -0.41479E-01  0.43883E+00  0.00000E+00 -0.46500E-01  0.42131E+00  0.00000E+00 -0.53968E-01  0.39992E+00  0.00000E+00 -0.67527E-01
          0.37763E+00  0.00000E+00 -0.81350E-01  0.37183E+00  0.00000E+00 -0.67798E-01  0.34376E+00  0.00000E+00 -0.11742E+00  0.32023E+00  0.00000E+00 -0.10248E+00  0.33814E+00  0.00000E+00 -0.98731E-01  0.30849E+00  0.00000E+00 -0.10678E+00
          0.25033E+00  0.00000E+00 -0.11868E+00  0.28991E+00  0.00000E+00 -0.11280E+00  0.23180E+00  0.00000E+00 -0.12879E+00  0.25324E+00  0.00000E+00 -0.12928E+00  0.23852E+00  0.00000E+00 -0.13097E+00  0.22681E+00  0.00000E+00 -0.13626E+00
          0.23379E+00  0.00000E+00 -0.14137E+00  0.22957E+00  0.00000E+00 -0.14388E+00  0.22053E+00  0.00000E+00 -0.14454E+00  0.22753E+00  0.00000E+00 -0.14851E+00  0.22515E+00  0.00000E+00 -0.15721E+00  0.22475E+00  0.00000E+00 -0.15877E+00
          0.54013E+00  0.00000E+00 -0.12210E-02  0.55806E+00  0.00000E+00 -0.85555E-02  0.54830E+00  0.00000E+00 -0.58443E-02  0.51983E+00  0.00000E+00 -0.19244E-01  0.51605E+00  0.00000E+00 -0.22798E-01  0.50396E+00  0.00000E+00 -0.20156E-01
          0.50330E+00  0.00000E+00 -0.30964E-01  0.49627E+00  0.00000E+00 -0.33942E-01  0.48500E+00  0.00000E+00 -0.41342E-01  0.47229E+00  0.00000E+00 -0.44439E-01  0.46224E+00  0.00000E+00 -0.47563E-01  0.44318E+00  0.00000E+00 -0.62402E-01
          0.42640E+00  0.00000E+00 -0.70769E-01  0.39122E+00  0.00000E+00 -0.66989E-01  0.37305E+00  0.00000E+00 -0.92140E-01  0.32630E+00  0.00000E+00 -0.10052E+00  0.35104E+00  0.00000E+00 -0.90641E-01  0.32123E+00  0.00000E+00 -0.94832E-01
          0.26082E+00  0.00000E+00 -0.10535E+00  0.31349E+00  0.00000E+00 -0.10156E+00  0.24709E+00  0.00000E+00 -0.11846E+00  0.27411E+00  0.00000E+00 -0.11817E+00  0.25816E+00  0.00000E+00 -0.12033E+00  0.24443E+00  0.00000E+00 -0.12589E+00
          0.25323E+00  0.00000E+00 -0.13109E+00  0.24920E+00  0.00000E+00 -0.13375E+00  0.23843E+00  0.00000E+00 -0.13442E+00  0.24708E+00  0.00000E+00 -0.13841E+00  0.24461E+00  0.00000E+00 -0.14769E+00  0.24408E+00  0.00000E+00 -0.14938E+00
          0.57793E+00  0.00000E+00 -0.11453E-02  0.59255E+00  0.00000E+00 -0.69801E-02  0.57931E+00  0.00000E+00 -0.72730E-02  0.55060E+00  0.00000E+00 -0.20098E-01  0.54940E+00  0.00000E+00 -0.24140E-01  0.53464E+00  0.00000E+00 -0.22067E-01
          0.53442E+00  0.00000E+00 -0.30120E-01  0.52801E+00  0.00000E+00 -0.34973E-01  0.51780E+00  0.00000E+00 -0.40440E-01  0.50441E+00  0.00000E+00 -0.45537E-01  0.49192E+00  0.00000E+00 -0.48386E-01  0.47391E+00  0.00000E+00 -0.54312E-01
          0.46019E+00  0.00000E+00 -0.61644E-01  0.42592E+00  0.00000E+00 -0.70584E-01  0.40825E+00  0.00000E+00 -0.67080E-01  0.36646E+00  0.00000E+00 -0.10142E+00  0.34623E+00  0.00000E+00 -0.93207E-01  0.33087E+00  0.00000E+00 -0.90260E-01
          0.26982E+00  0.00000E+00 -0.10250E+00  0.33492E+00  0.00000E+00 -0.10142E+00  0.26708E+00  0.00000E+00 -0.11336E+00  0.29663E+00  0.00000E+00 -0.11377E+00  0.28234E+00  0.00000E+00 -0.11683E+00  0.26668E+00  0.00000E+00 -0.12219E+00
          0.27574E+00  0.00000E+00 -0.12783E+00  0.27154E+00  0.00000E+00 -0.13063E+00  0.25921E+00  0.00000E+00 -0.13163E+00  0.26809E+00  0.00000E+00 -0.13555E+00  0.26533E+00  0.00000E+00 -0.14532E+00  0.26460E+00  0.00000E+00 -0.14711E+00
          0.61520E+00  0.00000E+00 -0.78374E-03  0.62686E+00  0.00000E+00 -0.57288E-02  0.61579E+00  0.00000E+00 -0.61150E-02  0.58593E+00  0.00000E+00 -0.19858E-01  0.58934E+00  0.00000E+00 -0.25999E-01  0.56891E+00  0.00000E+00 -0.24869E-01
          0.56673E+00  0.00000E+00 -0.31546E-01  0.55953E+00  0.00000E+00 -0.38540E-01  0.55163E+00  0.00000E+00 -0.41671E-01  0.53786E+00  0.00000E+00 -0.46852E-01  0.52618E+00  0.00000E+00 -0.50927E-01  0.50891E+00  0.00000E+00 -0.57598E-01
          0.49028E+00  0.00000E+00 -0.59639E-01  0.46835E+00  0.00000E+00 -0.74917E-01  0.43674E+00  0.00000E+00 -0.64651E-01  0.41882E+00  0.00000E+00 -0.70053E-01  0.36201E+00  0.00000E+00 -0.10554E+00  0.34346E+00  0.00000E+00 -0.87529E-01
          0.28096E+00  0.00000E+00 -0.10228E+00  0.35357E+00  0.00000E+00 -0.11038E+00  0.28470E+00  0.00000E+00 -0.11950E+00  0.32062E+00  0.00000E+00 -0.11732E+00  0.30821E+00  0.00000E+00 -0.12313E+00  0.29026E+00  0.00000E+00 -0.12811E+00
          0.29922E+00  0.00000E+00 -0.13266E+00  0.29446E+00  0.00000E+00 -0.13523E+00  0.28066E+00  0.00000E+00 -0.13673E+00  0.28909E+00  0.00000E+00 -0.14043E+00  0.28594E+00  0.00000E+00 -0.14965E+00  0.28500E+00  0.00000E+00 -0.15117E+00
          0.64619E+00  0.00000E+00 -0.35441E-03  0.64975E+00  0.00000E+00 -0.27228E-02  0.66358E+00  0.00000E+00 -0.68652E-02  0.62340E+00  0.00000E+00 -0.10696E-01  0.64429E+00  0.00000E+00 -0.32535E-01  0.61191E+00  0.00000E+00 -0.23977E-01