<?xml version="1.0"?>
<VTKFile type="UnstructuredGrid" version="0.1" byte_order="LittleEndian" compressor="vtkZLibDataCompressor">
<UnstructuredGrid>
  <Piece NumberOfPoints="1800"        NumberOfCells="1"      >
    <Points>
      <DataArray type="Float32" NumberOfComponents="3" format="ascii" >
        0.13853E-01  0.00000E+00  0.24780E-02  0.75704E-02  0.00000E+00  0.82774E-02  0.71469E-02  0.00000E+00  0.15738E-01  0.81711E-02  0.00000E+00  0.21820E-01  0.83083E-02  0.00000E+00  0.27972E-01  0.78598E-02  0.00000E+00  0.34528E-01
        0.76089E-02  0.00000E+00  0.41083E-01  0.76297E-02  0.00000E+00  0.47514E-01  0.75464E-02  0.00000E+00  0.53935E-01  0.73826E-02  0.00000E+00  0.60465E-01  0.72421E-02  0.00000E+00  0.67135E-01  0.71125E-02  0.00000E+00  0.73883E-01
        0.70071E-02  0.00000E+00  0.80727E-01  0.69114E-02  0.00000E+00  0.87655E-01  0.68272E-02  0.00000E+00  0.94661E-01  0.67515E-02  0.00000E+00  0.10174E+00  0.66823E-02  0.00000E+00  0.10888E+00  0.66181E-02  0.00000E+00  0.11609E+00
        0.65572E-02  0.00000E+00  0.12337E+00  0.65000E-02  0.00000E+00  0.13070E+00  0.64445E-02  0.00000E+00  0.13809E+00  0.63906E-02  0.00000E+00  0.14554E+00  0.63423E-02  0.00000E+00  0.15305E+00  0.62867E-02  0.00000E+00  0.16061E+00
        0.62436E-02  0.00000E+00  0.16824E+00  0.62167E-02  0.00000E+00  0.17592E+00  0.60854E-02  0.00000E+00  0.18357E+00  0.62692E-02  0.00000E+00  0.19148E+00  0.59896E-02  0.00000E+00  0.19936E+00  0.56979E-02  0.00000E+00  0.20611E+00
        0.28957E-01  0.00000E+00  0.37341E-02  0.19461E-01  0.00000E+00  0.10526E-01  0.26780E-01  0.00000E+00  0.14980E-01  0.26413E-01  0.00000E+00  0.22548E-01  0.19147E-01  0.00000E+00  0.26732E-01  0.25710E-01  0.00000E+00  0.33579E-01
        0.20610E-01  0.00000E+00  0.39813E-01  0.23027E-01  0.00000E+00  0.46509E-01  0.21633E-01  0.00000E+00  0.53193E-01  0.21677E-01  0.00000E+00  0.60108E-01  0.21316E-01  0.00000E+00  0.67006E-01  0.21081E-01  0.00000E+00  0.73943E-01
        0.20851E-01  0.00000E+00  0.80934E-01  0.20644E-01  0.00000E+00  0.87962E-01  0.20450E-01  0.00000E+00  0.95036E-01  0.20268E-01  0.00000E+00  0.10216E+00  0.20095E-01  0.00000E+00  0.10934E+00  0.19931E-01  0.00000E+00  0.11656E+00
        0.19773E-01  0.00000E+00  0.12384E+00  0.19622E-01  0.00000E+00  0.13118E+00  0.19478E-01  0.00000E+00  0.13857E+00  0.19335E-01  0.00000E+00  0.14600E+00  0.19201E-01  0.00000E+00  0.15351E+00  0.19071E-01  0.00000E+00  0.16103E+00
        0.18926E-01  0.00000E+00  0.16861E+00  0.18857E-01  0.00000E+00  0.17636E+00  0.18630E-01  0.00000E+00  0.18377E+00  0.18709E-01  0.00000E+00  0.19185E+00  0.18404E-01  0.00000E+00  0.19969E+00  0.18330E-01  0.00000E+00  0.20616E+00
        0.45259E-01  0.00000E+00  0.35811E-02  0.36375E-01  0.00000E+00  0.10294E-01  0.45077E-01  0.00000E+00  0.14708E-01  0.42284E-01  0.00000E+00  0.22085E-01  0.35674E-01  0.00000E+00  0.27197E-01  0.41904E-01  0.00000E+00  0.34194E-01
        0.35297E-01  0.00000E+00  0.40077E-01  0.38087E-01  0.00000E+00  0.46893E-01  0.35812E-01  0.00000E+00  0.53503E-01  0.36018E-01  0.00000E+00  0.60559E-01  0.35464E-01  0.00000E+00  0.67553E-01  0.35194E-01  0.00000E+00  0.74587E-01
        0.34892E-01  0.00000E+00  0.81677E-01  0.34607E-01  0.00000E+00  0.88781E-01  0.34330E-01  0.00000E+00  0.95924E-01  0.34062E-01  0.00000E+00  0.10311E+00  0.33799E-01  0.00000E+00  0.11033E+00  0.33544E-01  0.00000E+00  0.11759E+00
        0.33296E-01  0.00000E+00  0.12489E+00  0.33056E-01  0.00000E+00  0.13224E+00  0.32822E-01  0.00000E+00  0.13963E+00  0.32597E-01  0.00000E+00  0.14705E+00  0.32376E-01  0.00000E+00  0.15456E+00  0.32168E-01  0.00000E+00  0.16205E+00
        0.31961E-01  0.00000E+00  0.16960E+00  0.31775E-01  0.00000E+00  0.17734E+00  0.31584E-01  0.00000E+00  0.18466E+00  0.31443E-01  0.00000E+00  0.19275E+00  0.31224E-01  0.00000E+00  0.20047E+00  0.31101E-01  0.00000E+00  0.20684E+00
        0.63817E-01  0.00000E+00  0.35644E-02  0.54836E-01  0.00000E+00  0.92731E-02  0.58573E-01  0.00000E+00  0.16468E-01  0.60770E-01  0.00000E+00  0.24082E-01  0.51307E-01  0.00000E+00  0.27254E-01  0.57455E-01  0.00000E+00  0.34559E-01
        0.51129E-01  0.00000E+00  0.40171E-01  0.52485E-01  0.00000E+00  0.47347E-01  0.50408E-01  0.00000E+00  0.54001E-01  0.50190E-01  0.00000E+00  0.61014E-01  0.49634E-01  0.00000E+00  0.68048E-01  0.49278E-01  0.00000E+00  0.75115E-01
        0.48916E-01  0.00000E+00  0.82236E-01  0.48572E-01  0.00000E+00  0.89377E-01  0.48232E-01  0.00000E+00  0.96554E-01  0.47902E-01  0.00000E+00  0.10376E+00  0.47574E-01  0.00000E+00  0.11100E+00  0.47254E-01  0.00000E+00  0.11828E+00
        0.46940E-01  0.00000E+00  0.12559E+00  0.46634E-01  0.00000E+00  0.13293E+00  0.46335E-01  0.00000E+00  0.14032E+00  0.46046E-01  0.00000E+00  0.14772E+00  0.45762E-01  0.00000E+00  0.15520E+00  0.45495E-01  0.00000E+00  0.16265E+00
        0.45235E-01  0.00000E+00  0.17016E+00  0.44985E-01  0.00000E+00  0.17785E+00  0.44783E-01  0.00000E+00  0.18508E+00  0.44541E-01  0.00000E+00  0.19312E+00  0.44445E-01  0.00000E+00  0.20069E+00  0.44262E-01  0.00000E+00  0.20699E+00
        0.79788E-01  0.00000E+00  0.37140E-02  0.72103E-01  0.00000E+00  0.96700E-02  0.71326E-01  0.00000E+00  0.17407E-01  0.77787E-01  0.00000E+00  0.23854E-01  0.69459E-01  0.00000E+00  0.28816E-01  0.73666E-01  0.00000E+00  0.36350E-01
        0.66555E-01  0.00000E+00  0.41070E-01  0.66888E-01  0.00000E+00  0.48179E-01  0.64973E-01  0.00000E+00  0.54766E-01  0.64461E-01  0.00000E+00  0.61695E-01  0.63839E-01  0.00000E+00  0.68659E-01  0.63391E-01  0.00000E+00  0.75663E-01
        0.62961E-01  0.00000E+00  0.82732E-01  0.62551E-01  0.00000E+00  0.89835E-01  0.62147E-01  0.00000E+00  0.96979E-01  0.61750E-01  0.00000E+00  0.10416E+00  0.61357E-01  0.00000E+00  0.11138E+00  0.60970E-01  0.00000E+00  0.11865E+00
        0.60589E-01  0.00000E+00  0.12594E+00  0.60217E-01  0.00000E+00  0.13328E+00  0.59853E-01  0.00000E+00  0.14064E+00  0.59500E-01  0.00000E+00  0.14803E+00  0.59156E-01  0.00000E+00  0.15549E+00  0.58831E-01  0.00000E+00  0.16292E+00
        0.58515E-01  0.00000E+00  0.17041E+00  0.58228E-01  0.00000E+00  0.17807E+00  0.57959E-01  0.00000E+00  0.18525E+00  0.57721E-01  0.00000E+00  0.19328E+00  0.57537E-01  0.00000E+00  0.20080E+00  0.57408E-01  0.00000E+00  0.20705E+00
        0.93533E-01  0.00000E+00  0.42976E-02  0.88604E-01  0.00000E+00  0.11117E-01  0.85711E-01  0.00000E+00  0.18341E-01  0.94983E-01  0.00000E+00  0.23497E-01  0.87027E-01  0.00000E+00  0.28935E-01  0.88813E-01  0.00000E+00  0.36522E-01
        0.82683E-01  0.00000E+00  0.41769E-01  0.81599E-01  0.00000E+00  0.48888E-01  0.79742E-01  0.00000E+00  0.55391E-01  0.78897E-01  0.00000E+00  0.62177E-01  0.78197E-01  0.00000E+00  0.69087E-01  0.77628E-01  0.00000E+00  0.76028E-01
        0.77101E-01  0.00000E+00  0.83041E-01  0.76601E-01  0.00000E+00  0.90105E-01  0.76110E-01  0.00000E+00  0.97217E-01  0.75632E-01  0.00000E+00  0.10438E+00  0.75161E-01  0.00000E+00  0.11158E+00  0.74702E-01  0.00000E+00  0.11882E+00
        0.74253E-01  0.00000E+00  0.12610E+00  0.73817E-01  0.00000E+00  0.13342E+00  0.73393E-01  0.00000E+00  0.14078E+00  0.72986E-01  0.00000E+00  0.14815E+00  0.72593E-01  0.00000E+00  0.15559E+00  0.72223E-01  0.00000E+00  0.16300E+00
        0.71871E-01  0.00000E+00  0.17045E+00  0.71548E-01  0.00000E+00  0.17808E+00  0.71262E-01  0.00000E+00  0.18522E+00  0.71004E-01  0.00000E+00  0.19323E+00  0.70849E-01  0.00000E+00  0.20067E+00  0.70668E-01  0.00000E+00  0.20687E+00
        0.10382E+00  0.00000E+00  0.44768E-02  0.10938E+00  0.00000E+00  0.12184E-01  0.10098E+00  0.00000E+00  0.16536E-01  0.11092E+00  0.00000E+00  0.22741E-01  0.10437E+00  0.00000E+00  0.28221E-01  0.10292E+00  0.00000E+00  0.35644E-01
        0.98826E-01  0.00000E+00  0.41982E-01  0.96557E-01  0.00000E+00  0.48899E-01  0.94713E-01  0.00000E+00  0.55490E-01  0.93550E-01  0.00000E+00  0.62243E-01  0.92694E-01  0.00000E+00  0.69142E-01  0.91977E-01  0.00000E+00  0.76076E-01
        0.91335E-01  0.00000E+00  0.83082E-01  0.90731E-01  0.00000E+00  0.90142E-01  0.90147E-01  0.00000E+00  0.97244E-01  0.89582E-01  0.00000E+00  0.10439E+00  0.89032E-01  0.00000E+00  0.11158E+00  0.88499E-01  0.00000E+00  0.11881E+00
        0.87981E-01  0.00000E+00  0.12607E+00  0.87481E-01  0.00000E+00  0.13337E+00  0.86999E-01  0.00000E+00  0.14071E+00  0.86538E-01  0.00000E+00  0.14806E+00  0.86097E-01  0.00000E+00  0.15548E+00  0.85683E-01  0.00000E+00  0.16286E+00
        0.85292E-01  0.00000E+00  0.17029E+00  0.84938E-01  0.00000E+00  0.17789E+00  0.84616E-01  0.00000E+00  0.18499E+00  0.84345E-01  0.00000E+00  0.19299E+00  0.84134E-01  0.00000E+00  0.20041E+00  0.83946E-01  0.00000E+00  0.20658E+00
        0.11601E+00  0.00000E+00  0.40682E-02  0.12377E+00  0.00000E+00  0.11664E-01  0.12028E+00  0.00000E+00  0.19115E-01  0.12928E+00  0.00000E+00  0.23301E-01  0.12160E+00  0.00000E+00  0.29191E-01  0.11695E+00  0.00000E+00  0.35370E-01
        0.11424E+00  0.00000E+00  0.41971E-01  0.11144E+00  0.00000E+00  0.48636E-01  0.10956E+00  0.00000E+00  0.55393E-01  0.10818E+00  0.00000E+00  0.62158E-01  0.10715E+00  0.00000E+00  0.69029E-01  0.10630E+00  0.00000E+00  0.75962E-01
        0.10555E+00  0.00000E+00  0.82953E-01  0.10486E+00  0.00000E+00  0.89996E-01  0.10419E+00  0.00000E+00  0.97086E-01  0.10354E+00  0.00000E+00  0.10422E+00  0.10292E+00  0.00000E+00  0.11139E+00  0.10232E+00  0.00000E+00  0.11861E+00
        0.10173E+00  0.00000E+00  0.12586E+00  0.10117E+00  0.00000E+00  0.13315E+00  0.10063E+00  0.00000E+00  0.14046E+00  0.10012E+00  0.00000E+00  0.14780E+00  0.99630E-01  0.00000E+00  0.15521E+00  0.99174E-01  0.00000E+00  0.16256E+00
        0.98747E-01  0.00000E+00  0.16999E+00  0.98364E-01  0.00000E+00  0.17757E+00  0.98014E-01  0.00000E+00  0.18464E+00  0.97729E-01  0.00000E+00  0.19264E+00  0.97511E-01  0.00000E+00  0.20001E+00  0.97288E-01  0.00000E+00  0.20615E+00
[...]
<PointData>
      <DataArray type="Float32" Name="Velocity vectors"  NumberOfComponents="3"  format="ascii" >
          0.95453E-01  0.00000E+00  0.15678E-02  0.14647E-01  0.00000E+00 -0.43010E-01  0.22778E-02  0.00000E+00 -0.36992E-01  0.99513E-02  0.00000E+00 -0.35092E-01  0.41550E-02  0.00000E+00 -0.27842E-01  0.16619E-02  0.00000E+00 -0.22754E-01
          0.79204E-02  0.00000E+00 -0.18713E-01  0.15694E-01  0.00000E+00 -0.24445E-01  0.18803E-01  0.00000E+00 -0.38339E-01  0.18686E-01  0.00000E+00 -0.52614E-01  0.16539E-01  0.00000E+00 -0.65507E-01  0.14515E-01  0.00000E+00 -0.78657E-01
          0.13047E-01  0.00000E+00 -0.91013E-01  0.11570E-01  0.00000E+00 -0.10263E+00  0.10410E-01  0.00000E+00 -0.11372E+00  0.94816E-02  0.00000E+00 -0.12433E+00  0.87577E-02  0.00000E+00 -0.13451E+00  0.81961E-02  0.00000E+00 -0.14436E+00
          0.77531E-02  0.00000E+00 -0.15392E+00  0.74022E-02  0.00000E+00 -0.16325E+00  0.70732E-02  0.00000E+00 -0.17242E+00  0.68233E-02  0.00000E+00 -0.18140E+00  0.65904E-02  0.00000E+00 -0.19035E+00  0.62207E-02  0.00000E+00 -0.19923E+00
          0.62120E-02  0.00000E+00 -0.20764E+00  0.57712E-02  0.00000E+00 -0.21647E+00  0.50232E-02  0.00000E+00 -0.22496E+00  0.71827E-02  0.00000E+00 -0.23177E+00  0.37467E-02  0.00000E+00 -0.24102E+00  0.43832E-02  0.00000E+00 -0.25372E+00
          0.46950E-01  0.00000E+00  0.39774E-02  0.10027E-01  0.00000E+00  0.14028E-01  0.65139E-01  0.00000E+00 -0.35418E-01  0.35709E-01  0.00000E+00 -0.82190E-02 -0.32817E-01  0.00000E+00 -0.58351E-01  0.57805E-01  0.00000E+00 -0.53896E-01
         -0.30980E-01  0.00000E+00 -0.69629E-01  0.67056E-01  0.00000E+00 -0.77050E-01  0.23140E-01  0.00000E+00 -0.85455E-01  0.40907E-01  0.00000E+00 -0.88434E-01  0.33826E-01  0.00000E+00 -0.92479E-01  0.32837E-01  0.00000E+00 -0.98324E-01
          0.30480E-01  0.00000E+00 -0.10434E+00  0.28886E-01  0.00000E+00 -0.11107E+00  0.27457E-01  0.00000E+00 -0.11864E+00  0.26144E-01  0.00000E+00 -0.12649E+00  0.24954E-01  0.00000E+00 -0.13472E+00  0.23897E-01  0.00000E+00 -0.14319E+00
          0.22909E-01  0.00000E+00 -0.15179E+00  0.22060E-01  0.00000E+00 -0.16038E+00  0.21332E-01  0.00000E+00 -0.16920E+00  0.20678E-01  0.00000E+00 -0.17784E+00  0.20123E-01  0.00000E+00 -0.18635E+00  0.19391E-01  0.00000E+00 -0.19563E+00
          0.18712E-01  0.00000E+00 -0.20341E+00  0.18480E-01  0.00000E+00 -0.21192E+00  0.16573E-01  0.00000E+00 -0.22256E+00  0.18430E-01  0.00000E+00 -0.22647E+00  0.15317E-01  0.00000E+00 -0.23709E+00  0.17053E-01  0.00000E+00 -0.25018E+00
          0.53767E-01  0.00000E+00  0.14979E-03  0.62015E-01  0.00000E+00 -0.27507E-02  0.10844E+00  0.00000E+00 -0.35331E-01  0.68508E-01  0.00000E+00 -0.27606E-01  0.13102E-01  0.00000E+00 -0.50274E-01  0.99955E-01  0.00000E+00 -0.57777E-01
         -0.82368E-02  0.00000E+00 -0.79867E-01  0.96893E-01  0.00000E+00 -0.86241E-01  0.22570E-01  0.00000E+00 -0.10245E+00  0.50900E-01  0.00000E+00 -0.10091E+00  0.39651E-01  0.00000E+00 -0.10441E+00  0.42393E-01  0.00000E+00 -0.10819E+00
          0.41756E-01  0.00000E+00 -0.11201E+00  0.41562E-01  0.00000E+00 -0.11717E+00  0.41138E-01  0.00000E+00 -0.12295E+00  0.40642E-01  0.00000E+00 -0.12917E+00  0.39957E-01  0.00000E+00 -0.13595E+00  0.39254E-01  0.00000E+00 -0.14317E+00
          0.38474E-01  0.00000E+00 -0.15072E+00  0.37682E-01  0.00000E+00 -0.15843E+00  0.36863E-01  0.00000E+00 -0.16667E+00  0.36013E-01  0.00000E+00 -0.17476E+00  0.35097E-01  0.00000E+00 -0.18274E+00  0.34243E-01  0.00000E+00 -0.19200E+00
          0.33226E-01  0.00000E+00 -0.19933E+00  0.32427E-01  0.00000E+00 -0.20786E+00  0.31447E-01  0.00000E+00 -0.21896E+00  0.31139E-01  0.00000E+00 -0.22256E+00  0.29438E-01  0.00000E+00 -0.23452E+00  0.29566E-01  0.00000E+00 -0.24721E+00
          0.12269E+00  0.00000E+00 -0.36271E-02  0.10046E+00  0.00000E+00 -0.27231E-01  0.12581E+00  0.00000E+00 -0.30284E-01  0.10415E+00  0.00000E+00 -0.17124E-01  0.47246E-01  0.00000E+00 -0.72820E-01  0.12592E+00  0.00000E+00 -0.58344E-01
          0.30743E-01  0.00000E+00 -0.90128E-01  0.10461E+00  0.00000E+00 -0.80943E-01  0.38805E-01  0.00000E+00 -0.96338E-01  0.55346E-01  0.00000E+00 -0.97919E-01  0.48929E-01  0.00000E+00 -0.10308E+00  0.51406E-01  0.00000E+00 -0.10763E+00
          0.51797E-01  0.00000E+00 -0.11229E+00  0.52528E-01  0.00000E+00 -0.11767E+00  0.52850E-01  0.00000E+00 -0.12328E+00  0.53019E-01  0.00000E+00 -0.12932E+00  0.52899E-01  0.00000E+00 -0.13574E+00  0.52659E-01  0.00000E+00 -0.14256E+00
          0.52256E-01  0.00000E+00 -0.14973E+00  0.51757E-01  0.00000E+00 -0.15705E+00  0.51160E-01  0.00000E+00 -0.16500E+00  0.50504E-01  0.00000E+00 -0.17289E+00  0.49698E-01  0.00000E+00 -0.18077E+00  0.48962E-01  0.00000E+00 -0.19010E+00
          0.48027E-01  0.00000E+00 -0.19748E+00  0.47146E-01  0.00000E+00 -0.20628E+00  0.46588E-01  0.00000E+00 -0.21762E+00  0.45410E-01  0.00000E+00 -0.22112E+00  0.45833E-01  0.00000E+00 -0.23388E+00  0.45105E-01  0.00000E+00 -0.24706E+00
          0.15590E+00  0.00000E+00 -0.28807E-02  0.14606E+00  0.00000E+00 -0.18543E-01  0.10111E+00  0.00000E+00 -0.12361E-01  0.13934E+00  0.00000E+00 -0.13827E-01  0.10122E+00  0.00000E+00 -0.37842E-01  0.18151E+00  0.00000E+00 -0.29599E-01
          0.62533E-01  0.00000E+00 -0.84545E-01  0.10664E+00  0.00000E+00 -0.76517E-01  0.56824E-01  0.00000E+00 -0.91431E-01  0.64027E-01  0.00000E+00 -0.92073E-01  0.59476E-01  0.00000E+00 -0.97661E-01  0.61802E-01  0.00000E+00 -0.10298E+00
          0.62984E-01  0.00000E+00 -0.10804E+00  0.64308E-01  0.00000E+00 -0.11410E+00  0.65221E-01  0.00000E+00 -0.12035E+00  0.65950E-01  0.00000E+00 -0.12698E+00  0.66381E-01  0.00000E+00 -0.13392E+00  0.66635E-01  0.00000E+00 -0.14119E+00
          0.66670E-01  0.00000E+00 -0.14874E+00  0.66543E-01  0.00000E+00 -0.15635E+00  0.66229E-01  0.00000E+00 -0.16454E+00  0.65776E-01  0.00000E+00 -0.17258E+00  0.65155E-01  0.00000E+00 -0.18060E+00  0.64477E-01  0.00000E+00 -0.19006E+00
          0.63650E-01  0.00000E+00 -0.19744E+00  0.62904E-01  0.00000E+00 -0.20640E+00  0.62061E-01  0.00000E+00 -0.21788E+00  0.61466E-01  0.00000E+00 -0.22143E+00  0.60677E-01  0.00000E+00 -0.23460E+00  0.60723E-01  0.00000E+00 -0.24742E+00
          0.18630E+00  0.00000E+00 -0.30849E-02  0.14402E+00  0.00000E+00 -0.10076E-01  0.11367E+00  0.00000E+00 -0.12552E-01  0.17399E+00  0.00000E+00 -0.33272E-01  0.14255E+00  0.00000E+00 -0.53109E-01  0.21104E+00  0.00000E+00 -0.35749E-01
          0.10838E+00  0.00000E+00 -0.77403E-01  0.10928E+00  0.00000E+00 -0.66503E-01  0.70534E-01  0.00000E+00 -0.79279E-01  0.71123E-01  0.00000E+00 -0.83262E-01  0.71174E-01  0.00000E+00 -0.89541E-01  0.73689E-01  0.00000E+00 -0.95890E-01
          0.75906E-01  0.00000E+00 -0.10250E+00  0.77884E-01  0.00000E+00 -0.10971E+00  0.79292E-01  0.00000E+00 -0.11701E+00  0.80360E-01  0.00000E+00 -0.12460E+00  0.81030E-01  0.00000E+00 -0.13229E+00  0.81434E-01  0.00000E+00 -0.14015E+00
          0.81569E-01  0.00000E+00 -0.14813E+00  0.81525E-01  0.00000E+00 -0.15605E+00  0.81273E-01  0.00000E+00 -0.16447E+00  0.80908E-01  0.00000E+00 -0.17260E+00  0.80393E-01  0.00000E+00 -0.18075E+00  0.79791E-01  0.00000E+00 -0.19031E+00
          0.79128E-01  0.00000E+00 -0.19763E+00  0.78453E-01  0.00000E+00 -0.20680E+00  0.77806E-01  0.00000E+00 -0.21835E+00  0.77275E-01  0.00000E+00 -0.22168E+00  0.77210E-01  0.00000E+00 -0.23521E+00  0.76892E-01  0.00000E+00 -0.24831E+00
          0.19036E+00  0.00000E+00 -0.33999E-03  0.22515E+00  0.00000E+00 -0.68200E-02  0.13659E+00  0.00000E+00 -0.61044E-01  0.20194E+00  0.00000E+00 -0.42580E-01  0.16487E+00  0.00000E+00 -0.86077E-01  0.19585E+00  0.00000E+00 -0.62397E-01
          0.14593E+00  0.00000E+00 -0.65473E-01  0.11758E+00  0.00000E+00 -0.61438E-01  0.92153E-01  0.00000E+00 -0.72569E-01  0.86609E-01  0.00000E+00 -0.81398E-01  0.87645E-01  0.00000E+00 -0.88462E-01  0.89616E-01  0.00000E+00 -0.95846E-01
          0.92035E-01  0.00000E+00 -0.10300E+00  0.93966E-01  0.00000E+00 -0.11019E+00  0.95307E-01  0.00000E+00 -0.11749E+00  0.96274E-01  0.00000E+00 -0.12497E+00  0.96870E-01  0.00000E+00 -0.13252E+00  0.97226E-01  0.00000E+00 -0.14031E+00
          0.97354E-01  0.00000E+00 -0.14826E+00  0.97342E-01  0.00000E+00 -0.15621E+00  0.97148E-01  0.00000E+00 -0.16474E+00  0.96867E-01  0.00000E+00 -0.17298E+00  0.96451E-01  0.00000E+00 -0.18128E+00  0.95950E-01  0.00000E+00 -0.19103E+00
          0.95404E-01  0.00000E+00 -0.19843E+00  0.94846E-01  0.00000E+00 -0.20782E+00  0.94213E-01  0.00000E+00 -0.21949E+00  0.93890E-01  0.00000E+00 -0.22288E+00  0.93237E-01  0.00000E+00 -0.23663E+00  0.93111E-01  0.00000E+00 -0.24952E+00
          0.20656E+00  0.00000E+00 -0.67266E-02  0.22753E+00  0.00000E+00 -0.26251E-02  0.20237E+00  0.00000E+00 -0.37213E-02  0.29318E+00  0.00000E+00 -0.53970E-01  0.23253E+00  0.00000E+00 -0.48060E-01  0.16924E+00  0.00000E+00 -0.78432E-01
          0.16565E+00  0.00000E+00 -0.71190E-01  0.13130E+00  0.00000E+00 -0.76025E-01  0.11494E+00  0.00000E+00 -0.79725E-01  0.10540E+00  0.00000E+00 -0.87070E-01  0.10392E+00  0.00000E+00 -0.93760E-01  0.10464E+00  0.00000E+00 -0.10008E+00
          0.10656E+00  0.00000E+00 -0.10649E+00  0.10836E+00  0.00000E+00 -0.11307E+00  0.10981E+00  0.00000E+00 -0.11988E+00  0.11098E+00  0.00000E+00 -0.12700E+00  0.11183E+00  0.00000E+00 -0.13434E+00  0.11243E+00  0.00000E+00 -0.14201E+00
          0.11278E+00  0.00000E+00 -0.14989E+00  0.11296E+00  0.00000E+00 -0.15780E+00  0.11292E+00  0.00000E+00 -0.16633E+00  0.11277E+00  0.00000E+00 -0.17452E+00  0.11248E+00  0.00000E+00 -0.18284E+00  0.11205E+00  0.00000E+00 -0.19258E+00
          0.11164E+00  0.00000E+00 -0.19989E+00  0.11115E+00  0.00000E+00 -0.20935E+00  0.11053E+00  0.00000E+00 -0.22098E+00  0.11035E+00  0.00000E+00 -0.22418E+00  0.10984E+00  0.00000E+00 -0.23810E+00  0.10962E+00  0.00000E+00 -0.25102E+00
          0.22764E+00  0.00000E+00 -0.32705E-02  0.21537E+00  0.00000E+00  0.46778E-02  0.27246E+00  0.00000E+00 -0.38031E-01  0.30333E+00  0.00000E+00 -0.60217E-02  0.23680E+00  0.00000E+00 -0.28081E-01  0.18025E+00  0.00000E+00 -0.71387E-01
          0.18110E+00  0.00000E+00 -0.58154E-01  0.12819E+00  0.00000E+00 -0.78923E-01  0.12776E+00  0.00000E+00 -0.77593E-01  0.11777E+00  0.00000E+00 -0.83745E-01  0.11697E+00  0.00000E+00 -0.89718E-01  0.11840E+00  0.00000E+00 -0.96025E-01
          0.12074E+00  0.00000E+00 -0.10288E+00  0.12305E+00  0.00000E+00 -0.11008E+00  0.12499E+00  0.00000E+00 -0.11759E+00  0.12653E+00  0.00000E+00 -0.12538E+00  0.12765E+00  0.00000E+00 -0.13334E+00  0.12843E+00  0.00000E+00 -0.14155E+00
          0.12891E+00  0.00000E+00 -0.14986E+00  0.12919E+00  0.00000E+00 -0.15813E+00  0.12922E+00  0.00000E+00 -0.16696E+00  0.12915E+00  0.00000E+00 -0.17536E+00  0.12894E+00  0.00000E+00 -0.18389E+00  0.12859E+00  0.00000E+00 -0.19381E+00
          0.12827E+00  0.00000E+00 -0.20118E+00  0.12786E+00  0.00000E+00 -0.21082E+00  0.12728E+00  0.00000E+00 -0.22252E+00  0.12716E+00  0.00000E+00 -0.22573E+00  0.12638E+00  0.00000E+00 -0.23980E+00  0.12618E+00  0.00000E+00 -0.25265E+00
          0.23441E+00  0.00000E+00 -0.51067E-02  0.26052E+00  0.00000E+00 -0.14271E-01  0.29811E+00  0.00000E+00 -0.32672E-01  0.25138E+00  0.00000E+00 -0.34043E-01  0.30066E+00  0.00000E+00 -0.62978E-02  0.23060E+00  0.00000E+00 -0.50902E-01
          0.20326E+00  0.00000E+00 -0.49881E-01  0.15002E+00  0.00000E+00 -0.77469E-01  0.14292E+00  0.00000E+00 -0.80392E-01  0.13504E+00  0.00000E+00 -0.88233E-01  0.13306E+00  0.00000E+00 -0.95338E-01  0.13515E+00  0.00000E+00 -0.10168E+00
          0.13749E+00  0.00000E+00 -0.10855E+00  0.13986E+00  0.00000E+00 -0.11557E+00  0.14187E+00  0.00000E+00 -0.12275E+00  0.14340E+00  0.00000E+00 -0.13013E+00  0.14448E+00  0.00000E+00 -0.13767E+00  0.14522E+00  0.00000E+00 -0.14548E+00
          0.14565E+00  0.00000E+00 -0.15342E+00  0.14589E+00  0.00000E+00 -0.16138E+00  0.14590E+00  0.00000E+00 -0.16994E+00  0.14584E+00  0.00000E+00 -0.17810E+00  0.14565E+00  0.00000E+00 -0.18647E+00  0.14530E+00  0.00000E+00 -0.19624E+00
          0.14503E+00  0.00000E+00 -0.20345E+00  0.14465E+00  0.00000E+00 -0.21306E+00  0.14401E+00  0.00000E+00 -0.22462E+00  0.14398E+00  0.00000E+00 -0.22768E+00  0.14312E+00  0.00000E+00 -0.24183E+00  0.14289E+00  0.00000E+00 -0.25453E+00
          0.26515E+00  0.00000E+00 -0.54249E-02  0.30548E+00  0.00000E+00 -0.21393E-01  0.31333E+00  0.00000E+00 -0.11576E-01  0.24234E+00  0.00000E+00 -0.33554E-01  0.32666E+00  0.00000E+00 -0.27939E-01  0.27884E+00  0.00000E+00 -0.62265E-01
          0.25353E+00  0.00000E+00 -0.45836E-01  0.18531E+00  0.00000E+00 -0.73569E-01  0.16898E+00  0.00000E+00 -0.81678E-01  0.15543E+00  0.00000E+00 -0.92851E-01  0.14975E+00  0.00000E+00 -0.10062E+00  0.15083E+00  0.00000E+00 -0.10710E+00
          0.15257E+00  0.00000E+00 -0.11368E+00  0.15475E+00  0.00000E+00 -0.12013E+00  0.15683E+00  0.00000E+00 -0.12679E+00  0.15851E+00  0.00000E+00 -0.13370E+00  0.15979E+00  0.00000E+00 -0.14081E+00  0.16074E+00  0.00000E+00 -0.14829E+00
          0.16136E+00  0.00000E+00 -0.15594E+00  0.16180E+00  0.00000E+00 -0.16370E+00  0.16197E+00  0.00000E+00 -0.17212E+00  0.16207E+00  0.00000E+00 -0.18013E+00  0.16203E+00  0.00000E+00 -0.18846E+00  0.16181E+00  0.00000E+00 -0.19818E+00
          0.16167E+00  0.00000E+00 -0.20529E+00  0.16139E+00  0.00000E+00 -0.21497E+00  0.16079E+00  0.00000E+00 -0.22648E+00  0.16084E+00  0.00000E+00 -0.22946E+00  0.15984E+00  0.00000E+00 -0.24372E+00  0.15963E+00  0.00000E+00 -0.25637E+00
          0.31154E+00  0.00000E+00 -0.21086E-02  0.32675E+00  0.00000E+00 -0.16777E-01  0.33567E+00  0.00000E+00 -0.14648E-01  0.27078E+00  0.00000E+00 -0.34081E-01  0.35574E+00  0.00000E+00 -0.30163E-01  0.31013E+00  0.00000E+00 -0.63861E-01
          0.28224E+00  0.00000E+00 -0.53074E-01  0.22038E+00  0.00000E+00 -0.75091E-01  0.19748E+00  0.00000E+00 -0.79750E-01  0.17814E+00  0.00000E+00 -0.91512E-01  0.16754E+00  0.00000E+00 -0.10112E+00  0.16678E+00  0.00000E+00 -0.10869E+00
          0.16765E+00  0.00000E+00 -0.11605E+00  0.16968E+00  0.00000E+00 -0.12291E+00  0.17189E+00  0.00000E+00 -0.12985E+00  0.17380E+00  0.00000E+00 -0.13690E+00  0.17533E+00  0.00000E+00 -0.14404E+00  0.17652E+00  0.00000E+00 -0.15150E+00
          0.17735E+00  0.00000E+00 -0.15907E+00  0.17798E+00  0.00000E+00 -0.16672E+00  0.17832E+00  0.00000E+00 -0.17503E+00  0.17856E+00  0.00000E+00 -0.18289E+00  0.17865E+00  0.00000E+00 -0.19113E+00  0.17853E+00  0.00000E+00 -0.20073E+00
          0.17850E+00  0.00000E+00 -0.20769E+00  0.17828E+00  0.00000E+00 -0.21735E+00  0.17766E+00  0.00000E+00 -0.22871E+00  0.17781E+00  0.00000E+00 -0.23160E+00  0.17669E+00  0.00000E+00 -0.24592E+00  0.17646E+00  0.00000E+00 -0.25835E+00
          0.34025E+00  0.00000E+00 -0.13154E-02  0.35379E+00  0.00000E+00 -0.17430E-01  0.36358E+00  0.00000E+00 -0.15701E-01  0.30041E+00  0.00000E+00 -0.36408E-01  0.38319E+00  0.00000E+00 -0.34994E-01  0.34438E+00  0.00000E+00 -0.63439E-01
          0.30985E+00  0.00000E+00 -0.54470E-01  0.24893E+00  0.00000E+00 -0.77478E-01  0.22582E+00  0.00000E+00 -0.80562E-01  0.20400E+00  0.00000E+00 -0.92033E-01  0.18950E+00  0.00000E+00 -0.10182E+00  0.18590E+00  0.00000E+00 -0.11003E+00
          0.18477E+00  0.00000E+00 -0.11827E+00  0.18573E+00  0.00000E+00 -0.12550E+00  0.18744E+00  0.00000E+00 -0.13261E+00  0.18914E+00  0.00000E+00 -0.13971E+00  0.19064E+00  0.00000E+00 -0.14677E+00  0.19191E+00  0.00000E+00 -0.15413E+00
          0.19287E+00  0.00000E+00 -0.16155E+00  0.19367E+00  0.00000E+00 -0.16908E+00  0.19418E+00  0.00000E+00 -0.17728E+00  0.19461E+00  0.00000E+00 -0.18500E+00  0.19490E+00  0.00000E+00 -0.19319E+00  0.19494E+00  0.00000E+00 -0.20272E+00
          0.19507E+00  0.00000E+00 -0.20955E+00  0.19500E+00  0.00000E+00 -0.21928E+00  0.19443E+00  0.00000E+00 -0.23054E+00  0.19473E+00  0.00000E+00 -0.23332E+00  0.19351E+00  0.00000E+00 -0.24776E+00  0.19335E+00  0.00000E+00 -0.26013E+00
          0.36912E+00  0.00000E+00 -0.14386E-02  0.38379E+00  0.00000E+00 -0.18770E-01  0.39537E+00  0.00000E+00 -0.16368E-01  0.33118E+00  0.00000E+00 -0.39618E-01  0.40968E+00  0.00000E+00 -0.37436E-01  0.37525E+00  0.00000E+00 -0.62970E-01
          0.33757E+00  0.00000E+00 -0.56043E-01  0.27900E+00  0.00000E+00 -0.79054E-01  0.25196E+00  0.00000E+00 -0.82087E-01  0.22760E+00  0.00000E+00 -0.93421E-01  0.21066E+00  0.00000E+00 -0.10255E+00  0.20495E+00  0.00000E+00 -0.11023E+00
          0.20189E+00  0.00000E+00 -0.11869E+00  0.20173E+00  0.00000E+00 -0.12610E+00  0.20290E+00  0.00000E+00 -0.13345E+00  0.20440E+00  0.00000E+00 -0.14079E+00  0.20594E+00  0.00000E+00 -0.14803E+00  0.20736E+00  0.00000E+00 -0.15556E+00
          0.20853E+00  0.00000E+00 -0.16311E+00  0.20956E+00  0.00000E+00 -0.17076E+00  0.21030E+00  0.00000E+00 -0.17905E+00  0.21095E+00  0.00000E+00 -0.18680E+00  0.21145E+00  0.00000E+00 -0.19508E+00  0.21164E+00  0.00000E+00 -0.20462E+00
          0.21194E+00  0.00000E+00 -0.21141E+00  0.21198E+00  0.00000E+00 -0.22124E+00  0.21142E+00  0.00000E+00 -0.23242E+00  0.21184E+00  0.00000E+00 -0.23514E+00  0.21051E+00  0.00000E+00 -0.24972E+00  0.21036E+00  0.00000E+00 -0.26190E+00
          0.40058E+00  0.00000E+00 -0.18324E-02  0.41673E+00  0.00000E+00 -0.20060E-01  0.43014E+00  0.00000E+00 -0.15879E-01  0.36254E+00  0.00000E+00 -0.43568E-01  0.43358E+00  0.00000E+00 -0.37997E-01  0.40234E+00  0.00000E+00 -0.62551E-01
          0.36445E+00  0.00000E+00 -0.56235E-01  0.30883E+00  0.00000E+00 -0.78780E-01  0.27784E+00  0.00000E+00 -0.81727E-01  0.25068E+00  0.00000E+00 -0.93321E-01  0.23196E+00  0.00000E+00 -0.10258E+00  0.22479E+00  0.00000E+00 -0.11008E+00
          0.22024E+00  0.00000E+00 -0.11881E+00  0.21906E+00  0.00000E+00 -0.12642E+00  0.21956E+00  0.00000E+00 -0.13403E+00  0.22068E+00  0.00000E+00 -0.14163E+00  0.22204E+00  0.00000E+00 -0.14906E+00  0.22342E+00  0.00000E+00 -0.15675E+00
          0.22462E+00  0.00000E+00 -0.16439E+00  0.22575E+00  0.00000E+00 -0.17213E+00  0.22659E+00  0.00000E+00 -0.18048E+00  0.22738E+00  0.00000E+00 -0.18822E+00  0.22802E+00  0.00000E+00 -0.19657E+00  0.22833E+00  0.00000E+00 -0.20611E+00
          0.22878E+00  0.00000E+00 -0.21282E+00  0.22894E+00  0.00000E+00 -0.22280E+00  0.22839E+00  0.00000E+00 -0.23388E+00  0.22899E+00  0.00000E+00 -0.23652E+00  0.22754E+00  0.00000E+00 -0.25126E+00  0.22748E+00  0.00000E+00 -0.26336E+00
          0.43490E+00  0.00000E+00 -0.22944E-02  0.45173E+00  0.00000E+00 -0.20746E-01  0.46764E+00  0.00000E+00 -0.13799E-01  0.39474E+00  0.00000E+00 -0.48242E-01  0.45300E+00  0.00000E+00 -0.35957E-01  0.42495E+00  0.00000E+00 -0.61728E-01
          0.38984E+00  0.00000E+00 -0.54922E-01  0.33813E+00  0.00000E+00 -0.76895E-01  0.30403E+00  0.00000E+00 -0.80217E-01  0.27403E+00  0.00000E+00 -0.92254E-01  0.25329E+00  0.00000E+00 -0.10192E+00  0.24455E+00  0.00000E+00 -0.10932E+00
          0.23858E+00  0.00000E+00 -0.11823E+00  0.23644E+00  0.00000E+00 -0.12591E+00  0.23630E+00  0.00000E+00 -0.13363E+00  0.23704E+00  0.00000E+00 -0.14142E+00  0.23824E+00  0.00000E+00 -0.14902E+00  0.23960E+00  0.00000E+00 -0.15691E+00
          0.24088E+00  0.00000E+00 -0.16473E+00  0.24215E+00  0.00000E+00 -0.17265E+00  0.24316E+00  0.00000E+00 -0.18118E+00  0.24412E+00  0.00000E+00 -0.18903E+00  0.24493E+00  0.00000E+00 -0.19757E+00  0.24538E+00  0.00000E+00 -0.20721E+00
          0.24597E+00  0.00000E+00 -0.21394E+00  0.24623E+00  0.00000E+00 -0.22412E+00  0.24569E+00  0.00000E+00 -0.23518E+00  0.24641E+00  0.00000E+00 -0.23777E+00  0.24482E+00  0.00000E+00 -0.25274E+00  0.24481E+00  0.00000E+00 -0.26469E+00
          0.47081E+00  0.00000E+00 -0.26095E-02  0.48622E+00  0.00000E+00 -0.19383E-01  0.50723E+00  0.00000E+00 -0.86306E-02  0.42819E+00  0.00000E+00 -0.51645E-01  0.46611E+00  0.00000E+00 -0.29679E-01  0.44227E+00  0.00000E+00 -0.59528E-01