<?xml version="1.0"?>
<VTKFile type="UnstructuredGrid" version="0.1" byte_order="LittleEndian" compressor="vtkZLibDataCompressor">
<UnstructuredGrid>
  <Piece NumberOfPoints="1800"        NumberOfCells="1"      >
    <Points>
      <DataArray type="Float32" NumberOfComponents="3" format="ascii" >
        0.96939E-02  0.00000E+00  0.24844E-02  0.68021E-02  0.00000E+00  0.10008E-01  0.62409E-02  0.00000E+00  0.17892E-01  0.66332E-02  0.00000E+00  0.25225E-01  0.66419E-02  0.00000E+00  0.32409E-01  0.65304E-02  0.00000E+00  0.39837E-01
        0.64598E-02  0.00000E+00  0.47315E-01  0.64041E-02  0.00000E+00  0.54858E-01  0.63437E-02  0.00000E+00  0.62486E-01  0.62894E-02  0.00000E+00  0.70182E-01  0.62378E-02  0.00000E+00  0.77946E-01  0.61879E-02  0.00000E+00  0.85776E-01
        0.61395E-02  0.00000E+00  0.93669E-01  0.60919E-02  0.00000E+00  0.10162E+00  0.60450E-02  0.00000E+00  0.10964E+00  0.59990E-02  0.00000E+00  0.11772E+00  0.59540E-02  0.00000E+00  0.12586E+00  0.59105E-02  0.00000E+00  0.13406E+00
        0.58687E-02  0.00000E+00  0.14231E+00  0.58288E-02  0.00000E+00  0.15063E+00  0.57912E-02  0.00000E+00  0.15900E+00  0.57560E-02  0.00000E+00  0.16742E+00  0.57228E-02  0.00000E+00  0.17589E+00  0.56943E-02  0.00000E+00  0.18440E+00
        0.56626E-02  0.00000E+00  0.19295E+00  0.56491E-02  0.00000E+00  0.20156E+00  0.56026E-02  0.00000E+00  0.21016E+00  0.56229E-02  0.00000E+00  0.21884E+00  0.55804E-02  0.00000E+00  0.22765E+00  0.53265E-02  0.00000E+00  0.23573E+00
        0.24789E-01  0.00000E+00  0.37456E-02  0.18898E-01  0.00000E+00  0.11096E-01  0.19848E-01  0.00000E+00  0.18731E-01  0.20133E-01  0.00000E+00  0.25668E-01  0.19668E-01  0.00000E+00  0.32969E-01  0.19658E-01  0.00000E+00  0.40418E-01
        0.19398E-01  0.00000E+00  0.47805E-01  0.19238E-01  0.00000E+00  0.55318E-01  0.19058E-01  0.00000E+00  0.62914E-01  0.18898E-01  0.00000E+00  0.70574E-01  0.18745E-01  0.00000E+00  0.78312E-01  0.18599E-01  0.00000E+00  0.86120E-01
        0.18460E-01  0.00000E+00  0.93995E-01  0.18325E-01  0.00000E+00  0.10194E+00  0.18195E-01  0.00000E+00  0.10994E+00  0.18069E-01  0.00000E+00  0.11800E+00  0.17946E-01  0.00000E+00  0.12612E+00  0.17827E-01  0.00000E+00  0.13430E+00
        0.17713E-01  0.00000E+00  0.14254E+00  0.17605E-01  0.00000E+00  0.15083E+00  0.17502E-01  0.00000E+00  0.15918E+00  0.17406E-01  0.00000E+00  0.16757E+00  0.17314E-01  0.00000E+00  0.17601E+00  0.17234E-01  0.00000E+00  0.18451E+00
        0.17150E-01  0.00000E+00  0.19301E+00  0.17093E-01  0.00000E+00  0.20162E+00  0.17010E-01  0.00000E+00  0.21016E+00  0.16973E-01  0.00000E+00  0.21881E+00  0.16888E-01  0.00000E+00  0.22765E+00  0.16743E-01  0.00000E+00  0.23555E+00
        0.38630E-01  0.00000E+00  0.40186E-02  0.32537E-01  0.00000E+00  0.11482E-01  0.33547E-01  0.00000E+00  0.19008E-01  0.33641E-01  0.00000E+00  0.26151E-01  0.33156E-01  0.00000E+00  0.33535E-01  0.33000E-01  0.00000E+00  0.40959E-01
        0.32605E-01  0.00000E+00  0.48396E-01  0.32312E-01  0.00000E+00  0.55952E-01  0.32001E-01  0.00000E+00  0.63570E-01  0.31723E-01  0.00000E+00  0.71254E-01  0.31457E-01  0.00000E+00  0.79010E-01  0.31206E-01  0.00000E+00  0.86829E-01
        0.30967E-01  0.00000E+00  0.94709E-01  0.30737E-01  0.00000E+00  0.10265E+00  0.30516E-01  0.00000E+00  0.11065E+00  0.30303E-01  0.00000E+00  0.11871E+00  0.30097E-01  0.00000E+00  0.12682E+00  0.29899E-01  0.00000E+00  0.13499E+00
        0.29709E-01  0.00000E+00  0.14321E+00  0.29528E-01  0.00000E+00  0.15148E+00  0.29357E-01  0.00000E+00  0.15980E+00  0.29196E-01  0.00000E+00  0.16817E+00  0.29046E-01  0.00000E+00  0.17658E+00  0.28907E-01  0.00000E+00  0.18505E+00
        0.28778E-01  0.00000E+00  0.19352E+00  0.28663E-01  0.00000E+00  0.20211E+00  0.28555E-01  0.00000E+00  0.21062E+00  0.28460E-01  0.00000E+00  0.21925E+00  0.28365E-01  0.00000E+00  0.22808E+00  0.28277E-01  0.00000E+00  0.23587E+00
        0.51671E-01  0.00000E+00  0.41507E-02  0.46605E-01  0.00000E+00  0.11857E-01  0.47007E-01  0.00000E+00  0.19329E-01  0.47335E-01  0.00000E+00  0.26525E-01  0.46683E-01  0.00000E+00  0.33911E-01  0.46421E-01  0.00000E+00  0.41337E-01
        0.45909E-01  0.00000E+00  0.48797E-01  0.45478E-01  0.00000E+00  0.56361E-01  0.45057E-01  0.00000E+00  0.63990E-01  0.44667E-01  0.00000E+00  0.71686E-01  0.44300E-01  0.00000E+00  0.79451E-01  0.43952E-01  0.00000E+00  0.87276E-01
        0.43621E-01  0.00000E+00  0.95161E-01  0.43303E-01  0.00000E+00  0.10310E+00  0.42997E-01  0.00000E+00  0.11110E+00  0.42703E-01  0.00000E+00  0.11916E+00  0.42420E-01  0.00000E+00  0.12726E+00  0.42147E-01  0.00000E+00  0.13542E+00
        0.41886E-01  0.00000E+00  0.14362E+00  0.41638E-01  0.00000E+00  0.15188E+00  0.41401E-01  0.00000E+00  0.16018E+00  0.41179E-01  0.00000E+00  0.16852E+00  0.40970E-01  0.00000E+00  0.17691E+00  0.40777E-01  0.00000E+00  0.18535E+00
        0.40601E-01  0.00000E+00  0.19378E+00  0.40438E-01  0.00000E+00  0.20234E+00  0.40299E-01  0.00000E+00  0.21080E+00  0.40163E-01  0.00000E+00  0.21939E+00  0.40074E-01  0.00000E+00  0.22812E+00  0.39965E-01  0.00000E+00  0.23590E+00
        0.64128E-01  0.00000E+00  0.42514E-02  0.60643E-01  0.00000E+00  0.12220E-01  0.60592E-01  0.00000E+00  0.19544E-01  0.60937E-01  0.00000E+00  0.26745E-01  0.60275E-01  0.00000E+00  0.34130E-01  0.59838E-01  0.00000E+00  0.41538E-01
        0.59205E-01  0.00000E+00  0.48995E-01  0.58636E-01  0.00000E+00  0.56559E-01  0.58092E-01  0.00000E+00  0.64188E-01  0.57588E-01  0.00000E+00  0.71889E-01  0.57115E-01  0.00000E+00  0.79659E-01  0.56669E-01  0.00000E+00  0.87490E-01
        0.56244E-01  0.00000E+00  0.95380E-01  0.55838E-01  0.00000E+00  0.10333E+00  0.55447E-01  0.00000E+00  0.11133E+00  0.55072E-01  0.00000E+00  0.11938E+00  0.54712E-01  0.00000E+00  0.12748E+00  0.54365E-01  0.00000E+00  0.13564E+00
        0.54033E-01  0.00000E+00  0.14383E+00  0.53717E-01  0.00000E+00  0.15208E+00  0.53415E-01  0.00000E+00  0.16037E+00  0.53131E-01  0.00000E+00  0.16870E+00  0.52863E-01  0.00000E+00  0.17707E+00  0.52616E-01  0.00000E+00  0.18549E+00
        0.52387E-01  0.00000E+00  0.19390E+00  0.52180E-01  0.00000E+00  0.20244E+00  0.51998E-01  0.00000E+00  0.21087E+00  0.51834E-01  0.00000E+00  0.21944E+00  0.51722E-01  0.00000E+00  0.22817E+00  0.51625E-01  0.00000E+00  0.23589E+00
        0.76169E-01  0.00000E+00  0.43159E-02  0.74606E-01  0.00000E+00  0.12494E-01  0.74282E-01  0.00000E+00  0.19704E-01  0.74558E-01  0.00000E+00  0.26902E-01  0.73866E-01  0.00000E+00  0.34268E-01  0.73251E-01  0.00000E+00  0.41663E-01
        0.72494E-01  0.00000E+00  0.49121E-01  0.71786E-01  0.00000E+00  0.56680E-01  0.71119E-01  0.00000E+00  0.64307E-01  0.70501E-01  0.00000E+00  0.72005E-01  0.69924E-01  0.00000E+00  0.79773E-01  0.69381E-01  0.00000E+00  0.87601E-01
        0.68867E-01  0.00000E+00  0.95489E-01  0.68376E-01  0.00000E+00  0.10343E+00  0.67906E-01  0.00000E+00  0.11143E+00  0.67455E-01  0.00000E+00  0.11948E+00  0.67022E-01  0.00000E+00  0.12758E+00  0.66606E-01  0.00000E+00  0.13572E+00
        0.66208E-01  0.00000E+00  0.14391E+00  0.65828E-01  0.00000E+00  0.15214E+00  0.65467E-01  0.00000E+00  0.16042E+00  0.65126E-01  0.00000E+00  0.16874E+00  0.64806E-01  0.00000E+00  0.17709E+00  0.64510E-01  0.00000E+00  0.18550E+00
        0.64239E-01  0.00000E+00  0.19389E+00  0.63994E-01  0.00000E+00  0.20241E+00  0.63783E-01  0.00000E+00  0.21081E+00  0.63599E-01  0.00000E+00  0.21936E+00  0.63476E-01  0.00000E+00  0.22804E+00  0.63353E-01  0.00000E+00  0.23574E+00
        0.88010E-01  0.00000E+00  0.43326E-02  0.88484E-01  0.00000E+00  0.12596E-01  0.88100E-01  0.00000E+00  0.19798E-01  0.88212E-01  0.00000E+00  0.26977E-01  0.87501E-01  0.00000E+00  0.34321E-01  0.86696E-01  0.00000E+00  0.41704E-01
        0.85810E-01  0.00000E+00  0.49156E-01  0.84965E-01  0.00000E+00  0.56705E-01  0.84172E-01  0.00000E+00  0.64324E-01  0.83439E-01  0.00000E+00  0.72015E-01  0.82757E-01  0.00000E+00  0.79774E-01  0.82117E-01  0.00000E+00  0.87596E-01
        0.81512E-01  0.00000E+00  0.95476E-01  0.80936E-01  0.00000E+00  0.10341E+00  0.80386E-01  0.00000E+00  0.11140E+00  0.79858E-01  0.00000E+00  0.11944E+00  0.79352E-01  0.00000E+00  0.12753E+00  0.78868E-01  0.00000E+00  0.13567E+00
        0.78403E-01  0.00000E+00  0.14385E+00  0.77961E-01  0.00000E+00  0.15208E+00  0.77540E-01  0.00000E+00  0.16034E+00  0.77143E-01  0.00000E+00  0.16865E+00  0.76771E-01  0.00000E+00  0.17699E+00  0.76426E-01  0.00000E+00  0.18538E+00
        0.76110E-01  0.00000E+00  0.19376E+00  0.75827E-01  0.00000E+00  0.20226E+00  0.75580E-01  0.00000E+00  0.21063E+00  0.75369E-01  0.00000E+00  0.21917E+00  0.75221E-01  0.00000E+00  0.22784E+00  0.75086E-01  0.00000E+00  0.23551E+00
        0.99913E-01  0.00000E+00  0.43006E-02  0.10213E+00  0.00000E+00  0.12528E-01  0.10198E+00  0.00000E+00  0.19831E-01  0.10191E+00  0.00000E+00  0.26982E-01  0.10116E+00  0.00000E+00  0.34301E-01  0.10016E+00  0.00000E+00  0.41677E-01
        0.99142E-01  0.00000E+00  0.49120E-01  0.98158E-01  0.00000E+00  0.56660E-01  0.97241E-01  0.00000E+00  0.64271E-01  0.96393E-01  0.00000E+00  0.71952E-01  0.95604E-01  0.00000E+00  0.79702E-01  0.94867E-01  0.00000E+00  0.87513E-01
        0.94171E-01  0.00000E+00  0.95384E-01  0.93510E-01  0.00000E+00  0.10331E+00  0.92880E-01  0.00000E+00  0.11129E+00  0.92277E-01  0.00000E+00  0.11932E+00  0.91699E-01  0.00000E+00  0.12740E+00  0.91146E-01  0.00000E+00  0.13553E+00
        0.90616E-01  0.00000E+00  0.14370E+00  0.90112E-01  0.00000E+00  0.15191E+00  0.89633E-01  0.00000E+00  0.16017E+00  0.89182E-01  0.00000E+00  0.16846E+00  0.88759E-01  0.00000E+00  0.17679E+00  0.88369E-01  0.00000E+00  0.18517E+00
        0.88010E-01  0.00000E+00  0.19353E+00  0.87692E-01  0.00000E+00  0.20201E+00  0.87414E-01  0.00000E+00  0.21037E+00  0.87180E-01  0.00000E+00  0.21890E+00  0.87017E-01  0.00000E+00  0.22754E+00  0.86858E-01  0.00000E+00  0.23518E+00
[...]
<PointData>
      <DataArray type="Float32" Name="Velocity vectors"  NumberOfComponents="3"  format="ascii" >
          0.22996E-01  0.00000E+00  0.13778E-02  0.10244E-01  0.00000E+00 -0.14394E-01  0.67324E-02  0.00000E+00 -0.18585E-01  0.11495E-01  0.00000E+00 -0.31431E-01  0.13560E-01  0.00000E+00 -0.48867E-01  0.11079E-01  0.00000E+00 -0.61136E-01
          0.91520E-02  0.00000E+00 -0.71625E-01  0.85081E-02  0.00000E+00 -0.82041E-01  0.77976E-02  0.00000E+00 -0.91534E-01  0.72611E-02  0.00000E+00 -0.10054E+00  0.69103E-02  0.00000E+00 -0.10927E+00  0.66440E-02  0.00000E+00 -0.11776E+00
          0.64644E-02  0.00000E+00 -0.12613E+00  0.63268E-02  0.00000E+00 -0.13438E+00  0.62169E-02  0.00000E+00 -0.14260E+00  0.61101E-02  0.00000E+00 -0.15087E+00  0.59857E-02  0.00000E+00 -0.15921E+00  0.58420E-02  0.00000E+00 -0.16755E+00
          0.56798E-02  0.00000E+00 -0.17588E+00  0.55050E-02  0.00000E+00 -0.18415E+00  0.53360E-02  0.00000E+00 -0.19233E+00  0.51433E-02  0.00000E+00 -0.20045E+00  0.49878E-02  0.00000E+00 -0.20841E+00  0.47936E-02  0.00000E+00 -0.21638E+00
          0.46066E-02  0.00000E+00 -0.22413E+00  0.45604E-02  0.00000E+00 -0.23180E+00  0.39706E-02  0.00000E+00 -0.23967E+00  0.47225E-02  0.00000E+00 -0.24668E+00  0.36001E-02  0.00000E+00 -0.25420E+00  0.28743E-02  0.00000E+00 -0.26467E+00
          0.62540E-01  0.00000E+00 -0.51736E-02  0.73411E-02  0.00000E+00 -0.21104E-01  0.40921E-01  0.00000E+00 -0.23743E-01  0.40284E-01  0.00000E+00 -0.41409E-01  0.26939E-01  0.00000E+00 -0.54548E-01  0.30768E-01  0.00000E+00 -0.61300E-01
          0.24489E-01  0.00000E+00 -0.71680E-01  0.23786E-01  0.00000E+00 -0.80962E-01  0.21902E-01  0.00000E+00 -0.89218E-01  0.20968E-01  0.00000E+00 -0.97899E-01  0.20096E-01  0.00000E+00 -0.10634E+00  0.19359E-01  0.00000E+00 -0.11464E+00
          0.18727E-01  0.00000E+00 -0.12293E+00  0.18153E-01  0.00000E+00 -0.13108E+00  0.17745E-01  0.00000E+00 -0.13916E+00  0.17504E-01  0.00000E+00 -0.14722E+00  0.17215E-01  0.00000E+00 -0.15529E+00  0.16878E-01  0.00000E+00 -0.16334E+00
          0.16498E-01  0.00000E+00 -0.17139E+00  0.16084E-01  0.00000E+00 -0.17943E+00  0.15671E-01  0.00000E+00 -0.18737E+00  0.15230E-01  0.00000E+00 -0.19542E+00  0.14811E-01  0.00000E+00 -0.20320E+00  0.14414E-01  0.00000E+00 -0.21118E+00
          0.13897E-01  0.00000E+00 -0.21907E+00  0.13735E-01  0.00000E+00 -0.22633E+00  0.12860E-01  0.00000E+00 -0.23515E+00  0.13241E-01  0.00000E+00 -0.24143E+00  0.12096E-01  0.00000E+00 -0.24854E+00  0.11688E-01  0.00000E+00 -0.26115E+00
          0.10084E+00  0.00000E+00 -0.55427E-02  0.27626E-01  0.00000E+00 -0.24977E-01  0.65703E-01  0.00000E+00 -0.28834E-01  0.61216E-01  0.00000E+00 -0.41048E-01  0.48141E-01  0.00000E+00 -0.53102E-01  0.49674E-01  0.00000E+00 -0.61768E-01
          0.41588E-01  0.00000E+00 -0.71846E-01  0.39968E-01  0.00000E+00 -0.80366E-01  0.37102E-01  0.00000E+00 -0.88333E-01  0.35643E-01  0.00000E+00 -0.96422E-01  0.34351E-01  0.00000E+00 -0.10418E+00  0.33283E-01  0.00000E+00 -0.11198E+00
          0.32412E-01  0.00000E+00 -0.11984E+00  0.31665E-01  0.00000E+00 -0.12772E+00  0.31027E-01  0.00000E+00 -0.13564E+00  0.30455E-01  0.00000E+00 -0.14350E+00  0.29889E-01  0.00000E+00 -0.15133E+00  0.29316E-01  0.00000E+00 -0.15912E+00
          0.28722E-01  0.00000E+00 -0.16693E+00  0.28116E-01  0.00000E+00 -0.17479E+00  0.27495E-01  0.00000E+00 -0.18255E+00  0.26884E-01  0.00000E+00 -0.19057E+00  0.26251E-01  0.00000E+00 -0.19826E+00  0.25647E-01  0.00000E+00 -0.20628E+00
          0.25018E-01  0.00000E+00 -0.21431E+00  0.24407E-01  0.00000E+00 -0.22149E+00  0.23740E-01  0.00000E+00 -0.23075E+00  0.23189E-01  0.00000E+00 -0.23693E+00  0.22270E-01  0.00000E+00 -0.24462E+00  0.21341E-01  0.00000E+00 -0.25742E+00
          0.13302E+00  0.00000E+00 -0.36159E-02  0.53341E-01  0.00000E+00 -0.24273E-01  0.77051E-01  0.00000E+00 -0.24877E-01  0.86838E-01  0.00000E+00 -0.36469E-01  0.66664E-01  0.00000E+00 -0.48821E-01  0.67818E-01  0.00000E+00 -0.58011E-01
          0.58365E-01  0.00000E+00 -0.68089E-01  0.54978E-01  0.00000E+00 -0.77015E-01  0.51650E-01  0.00000E+00 -0.85337E-01  0.49624E-01  0.00000E+00 -0.93573E-01  0.48082E-01  0.00000E+00 -0.10153E+00  0.46831E-01  0.00000E+00 -0.10945E+00
          0.45781E-01  0.00000E+00 -0.11735E+00  0.44825E-01  0.00000E+00 -0.12519E+00  0.43960E-01  0.00000E+00 -0.13302E+00  0.43175E-01  0.00000E+00 -0.14080E+00  0.42425E-01  0.00000E+00 -0.14859E+00  0.41701E-01  0.00000E+00 -0.15634E+00
          0.40985E-01  0.00000E+00 -0.16413E+00  0.40268E-01  0.00000E+00 -0.17197E+00  0.39529E-01  0.00000E+00 -0.17974E+00  0.38799E-01  0.00000E+00 -0.18780E+00  0.38035E-01  0.00000E+00 -0.19554E+00  0.37279E-01  0.00000E+00 -0.20366E+00
          0.36522E-01  0.00000E+00 -0.21184E+00  0.35709E-01  0.00000E+00 -0.21918E+00  0.35017E-01  0.00000E+00 -0.22874E+00  0.34090E-01  0.00000E+00 -0.23504E+00  0.33634E-01  0.00000E+00 -0.24343E+00  0.32817E-01  0.00000E+00 -0.25654E+00
          0.14727E+00  0.00000E+00 -0.58806E-04  0.80003E-01  0.00000E+00 -0.15093E-01  0.90853E-01  0.00000E+00 -0.20085E-01  0.10845E+00  0.00000E+00 -0.32364E-01  0.89459E-01  0.00000E+00 -0.44121E-01  0.86625E-01  0.00000E+00 -0.54322E-01
          0.76565E-01  0.00000E+00 -0.65064E-01  0.71539E-01  0.00000E+00 -0.74470E-01  0.67345E-01  0.00000E+00 -0.83367E-01  0.64542E-01  0.00000E+00 -0.92022E-01  0.62457E-01  0.00000E+00 -0.10023E+00  0.60807E-01  0.00000E+00 -0.10828E+00
          0.59440E-01  0.00000E+00 -0.11621E+00  0.58223E-01  0.00000E+00 -0.12404E+00  0.57112E-01  0.00000E+00 -0.13183E+00  0.56082E-01  0.00000E+00 -0.13957E+00  0.55112E-01  0.00000E+00 -0.14730E+00  0.54208E-01  0.00000E+00 -0.15500E+00
          0.53344E-01  0.00000E+00 -0.16272E+00  0.52508E-01  0.00000E+00 -0.17052E+00  0.51676E-01  0.00000E+00 -0.17826E+00  0.50851E-01  0.00000E+00 -0.18631E+00  0.50005E-01  0.00000E+00 -0.19406E+00  0.49177E-01  0.00000E+00 -0.20225E+00
          0.48300E-01  0.00000E+00 -0.21048E+00  0.47464E-01  0.00000E+00 -0.21793E+00  0.46584E-01  0.00000E+00 -0.22769E+00  0.45720E-01  0.00000E+00 -0.23410E+00  0.44973E-01  0.00000E+00 -0.24272E+00  0.44305E-01  0.00000E+00 -0.25590E+00
          0.14358E+00  0.00000E+00  0.32713E-02  0.11252E+00  0.00000E+00 -0.43903E-02  0.11013E+00  0.00000E+00 -0.16227E-01  0.13074E+00  0.00000E+00 -0.29406E-01  0.11260E+00  0.00000E+00 -0.41019E-01  0.10596E+00  0.00000E+00 -0.51713E-01
          0.95130E-01  0.00000E+00 -0.62467E-01  0.88402E-01  0.00000E+00 -0.72086E-01  0.83177E-01  0.00000E+00 -0.81276E-01  0.79505E-01  0.00000E+00 -0.90132E-01  0.76759E-01  0.00000E+00 -0.98561E-01  0.74620E-01  0.00000E+00 -0.10678E+00
          0.72853E-01  0.00000E+00 -0.11482E+00  0.71309E-01  0.00000E+00 -0.12271E+00  0.69929E-01  0.00000E+00 -0.13054E+00  0.68692E-01  0.00000E+00 -0.13832E+00  0.67565E-01  0.00000E+00 -0.14610E+00  0.66531E-01  0.00000E+00 -0.15386E+00
          0.65567E-01  0.00000E+00 -0.16166E+00  0.64654E-01  0.00000E+00 -0.16951E+00  0.63762E-01  0.00000E+00 -0.17730E+00  0.62889E-01  0.00000E+00 -0.18542E+00  0.61990E-01  0.00000E+00 -0.19321E+00  0.61110E-01  0.00000E+00 -0.20149E+00
          0.60185E-01  0.00000E+00 -0.20979E+00  0.59281E-01  0.00000E+00 -0.21733E+00  0.58393E-01  0.00000E+00 -0.22725E+00  0.57470E-01  0.00000E+00 -0.23367E+00  0.56888E-01  0.00000E+00 -0.24250E+00  0.56069E-01  0.00000E+00 -0.25592E+00
          0.12966E+00  0.00000E+00  0.43773E-02  0.14770E+00  0.00000E+00 -0.79558E-04  0.13497E+00  0.00000E+00 -0.13590E-01  0.15275E+00  0.00000E+00 -0.27458E-01  0.13651E+00  0.00000E+00 -0.39154E-01  0.12545E+00  0.00000E+00 -0.49998E-01
          0.11406E+00  0.00000E+00 -0.60649E-01  0.10581E+00  0.00000E+00 -0.70441E-01  0.99587E-01  0.00000E+00 -0.79811E-01  0.95045E-01  0.00000E+00 -0.88859E-01  0.91572E-01  0.00000E+00 -0.97491E-01  0.88833E-01  0.00000E+00 -0.10588E+00
          0.86593E-01  0.00000E+00 -0.11405E+00  0.84698E-01  0.00000E+00 -0.12204E+00  0.83055E-01  0.00000E+00 -0.12997E+00  0.81604E-01  0.00000E+00 -0.13783E+00  0.80300E-01  0.00000E+00 -0.14568E+00  0.79115E-01  0.00000E+00 -0.15351E+00
          0.78022E-01  0.00000E+00 -0.16138E+00  0.77004E-01  0.00000E+00 -0.16929E+00  0.76034E-01  0.00000E+00 -0.17713E+00  0.75106E-01  0.00000E+00 -0.18529E+00  0.74174E-01  0.00000E+00 -0.19312E+00  0.73272E-01  0.00000E+00 -0.20146E+00
          0.72327E-01  0.00000E+00 -0.20981E+00  0.71429E-01  0.00000E+00 -0.21742E+00  0.70493E-01  0.00000E+00 -0.22747E+00  0.69599E-01  0.00000E+00 -0.23392E+00  0.68837E-01  0.00000E+00 -0.24288E+00  0.67935E-01  0.00000E+00 -0.25629E+00
          0.11834E+00  0.00000E+00  0.29292E-02  0.17199E+00  0.00000E+00 -0.33919E-02  0.16398E+00  0.00000E+00 -0.12385E-01  0.17509E+00  0.00000E+00 -0.27101E-01  0.16042E+00  0.00000E+00 -0.39190E-01  0.14520E+00  0.00000E+00 -0.49615E-01
          0.13306E+00  0.00000E+00 -0.60095E-01  0.12338E+00  0.00000E+00 -0.69884E-01  0.11614E+00  0.00000E+00 -0.79163E-01  0.11069E+00  0.00000E+00 -0.88233E-01  0.10648E+00  0.00000E+00 -0.96911E-01  0.10313E+00  0.00000E+00 -0.10536E+00
          0.10038E+00  0.00000E+00 -0.11363E+00  0.98097E-01  0.00000E+00 -0.12173E+00  0.96159E-01  0.00000E+00 -0.12973E+00  0.94480E-01  0.00000E+00 -0.13766E+00  0.92999E-01  0.00000E+00 -0.14559E+00  0.91674E-01  0.00000E+00 -0.15349E+00
          0.90471E-01  0.00000E+00 -0.16143E+00  0.89365E-01  0.00000E+00 -0.16942E+00  0.88328E-01  0.00000E+00 -0.17734E+00  0.87350E-01  0.00000E+00 -0.18558E+00  0.86386E-01  0.00000E+00 -0.19347E+00  0.85463E-01  0.00000E+00 -0.20189E+00
          0.84502E-01  0.00000E+00 -0.21028E+00  0.83595E-01  0.00000E+00 -0.21794E+00  0.82634E-01  0.00000E+00 -0.22807E+00  0.81725E-01  0.00000E+00 -0.23448E+00  0.80989E-01  0.00000E+00 -0.24354E+00  0.79964E-01  0.00000E+00 -0.25709E+00
          0.11708E+00  0.00000E+00  0.99328E-03  0.18325E+00  0.00000E+00 -0.77321E-02  0.19474E+00  0.00000E+00 -0.12860E-01  0.19660E+00  0.00000E+00 -0.27555E-01  0.18405E+00  0.00000E+00 -0.39849E-01  0.16478E+00  0.00000E+00 -0.49812E-01
          0.15172E+00  0.00000E+00 -0.60073E-01  0.14083E+00  0.00000E+00 -0.69805E-01  0.13268E+00  0.00000E+00 -0.78925E-01  0.12643E+00  0.00000E+00 -0.87997E-01  0.12153E+00  0.00000E+00 -0.96696E-01  0.11761E+00  0.00000E+00 -0.10519E+00
          0.11441E+00  0.00000E+00 -0.11354E+00  0.11174E+00  0.00000E+00 -0.12174E+00  0.10950E+00  0.00000E+00 -0.12986E+00  0.10758E+00  0.00000E+00 -0.13789E+00  0.10592E+00  0.00000E+00 -0.14591E+00  0.10445E+00  0.00000E+00 -0.15389E+00
          0.10312E+00  0.00000E+00 -0.16191E+00  0.10192E+00  0.00000E+00 -0.16997E+00  0.10080E+00  0.00000E+00 -0.17796E+00  0.99769E-01  0.00000E+00 -0.18627E+00  0.98768E-01  0.00000E+00 -0.19423E+00  0.97828E-01  0.00000E+00 -0.20272E+00
          0.96859E-01  0.00000E+00 -0.21116E+00  0.95964E-01  0.00000E+00 -0.21886E+00  0.94991E-01  0.00000E+00 -0.22910E+00  0.94085E-01  0.00000E+00 -0.23551E+00  0.93245E-01  0.00000E+00 -0.24469E+00  0.92103E-01  0.00000E+00 -0.25822E+00
          0.12598E+00  0.00000E+00 -0.54743E-03  0.18850E+00  0.00000E+00 -0.96499E-02  0.22537E+00  0.00000E+00 -0.14898E-01  0.21757E+00  0.00000E+00 -0.28191E-01  0.20748E+00  0.00000E+00 -0.40750E-01  0.18424E+00  0.00000E+00 -0.50586E-01
          0.17022E+00  0.00000E+00 -0.60449E-01  0.15822E+00  0.00000E+00 -0.70204E-01  0.14918E+00  0.00000E+00 -0.79158E-01  0.14217E+00  0.00000E+00 -0.88183E-01  0.13661E+00  0.00000E+00 -0.96871E-01  0.13217E+00  0.00000E+00 -0.10537E+00
          0.12852E+00  0.00000E+00 -0.11378E+00  0.12549E+00  0.00000E+00 -0.12205E+00  0.12293E+00  0.00000E+00 -0.13025E+00  0.12075E+00  0.00000E+00 -0.13838E+00  0.11888E+00  0.00000E+00 -0.14649E+00  0.11726E+00  0.00000E+00 -0.15454E+00
          0.11581E+00  0.00000E+00 -0.16264E+00  0.11452E+00  0.00000E+00 -0.17077E+00  0.11334E+00  0.00000E+00 -0.17885E+00  0.11225E+00  0.00000E+00 -0.18723E+00  0.11121E+00  0.00000E+00 -0.19526E+00  0.11025E+00  0.00000E+00 -0.20383E+00
          0.10926E+00  0.00000E+00 -0.21233E+00  0.10837E+00  0.00000E+00 -0.22008E+00  0.10737E+00  0.00000E+00 -0.23040E+00  0.10645E+00  0.00000E+00 -0.23676E+00  0.10560E+00  0.00000E+00 -0.24602E+00  0.10435E+00  0.00000E+00 -0.25964E+00
          0.14006E+00  0.00000E+00 -0.15231E-02  0.19331E+00  0.00000E+00 -0.98809E-02  0.25486E+00  0.00000E+00 -0.18089E-01  0.23815E+00  0.00000E+00 -0.28573E-01  0.23056E+00  0.00000E+00 -0.41433E-01  0.20338E+00  0.00000E+00 -0.51500E-01
          0.18847E+00  0.00000E+00 -0.60726E-01  0.17543E+00  0.00000E+00 -0.70640E-01  0.16558E+00  0.00000E+00 -0.79469E-01  0.15788E+00  0.00000E+00 -0.88453E-01  0.15174E+00  0.00000E+00 -0.97181E-01  0.14682E+00  0.00000E+00 -0.10570E+00
          0.14277E+00  0.00000E+00 -0.11417E+00  0.13940E+00  0.00000E+00 -0.12251E+00  0.13656E+00  0.00000E+00 -0.13081E+00  0.13414E+00  0.00000E+00 -0.13904E+00  0.13206E+00  0.00000E+00 -0.14725E+00  0.13026E+00  0.00000E+00 -0.15542E+00
          0.12869E+00  0.00000E+00 -0.16361E+00  0.12730E+00  0.00000E+00 -0.17182E+00  0.12604E+00  0.00000E+00 -0.17998E+00  0.12490E+00  0.00000E+00 -0.18844E+00  0.12382E+00  0.00000E+00 -0.19653E+00  0.12284E+00  0.00000E+00 -0.20518E+00
          0.12183E+00  0.00000E+00 -0.21374E+00  0.12094E+00  0.00000E+00 -0.22154E+00  0.11992E+00  0.00000E+00 -0.23197E+00  0.11900E+00  0.00000E+00 -0.23830E+00  0.11807E+00  0.00000E+00 -0.24768E+00  0.11670E+00  0.00000E+00 -0.26131E+00
          0.15604E+00  0.00000E+00 -0.26105E-02  0.20053E+00  0.00000E+00 -0.98962E-02  0.28186E+00  0.00000E+00 -0.22424E-01  0.25842E+00  0.00000E+00 -0.29189E-01  0.25329E+00  0.00000E+00 -0.42160E-01  0.22233E+00  0.00000E+00 -0.52677E-01
          0.20669E+00  0.00000E+00 -0.61046E-01  0.19266E+00  0.00000E+00 -0.71215E-01  0.18201E+00  0.00000E+00 -0.79958E-01  0.17367E+00  0.00000E+00 -0.88890E-01  0.16695E+00  0.00000E+00 -0.97688E-01  0.16157E+00  0.00000E+00 -0.10622E+00
          0.15714E+00  0.00000E+00 -0.11475E+00  0.15344E+00  0.00000E+00 -0.12316E+00  0.15032E+00  0.00000E+00 -0.13153E+00  0.14765E+00  0.00000E+00 -0.13985E+00  0.14536E+00  0.00000E+00 -0.14816E+00  0.14338E+00  0.00000E+00 -0.15643E+00
          0.14166E+00  0.00000E+00 -0.16473E+00  0.14016E+00  0.00000E+00 -0.17303E+00  0.13883E+00  0.00000E+00 -0.18128E+00  0.13763E+00  0.00000E+00 -0.18982E+00  0.13652E+00  0.00000E+00 -0.19798E+00  0.13551E+00  0.00000E+00 -0.20673E+00
          0.13448E+00  0.00000E+00 -0.21534E+00  0.13359E+00  0.00000E+00 -0.22321E+00  0.13253E+00  0.00000E+00 -0.23373E+00  0.13160E+00  0.00000E+00 -0.24002E+00  0.13064E+00  0.00000E+00 -0.24950E+00  0.12917E+00  0.00000E+00 -0.26321E+00
          0.17362E+00  0.00000E+00 -0.38500E-02  0.21173E+00  0.00000E+00 -0.10114E-01  0.30556E+00  0.00000E+00 -0.27064E-01  0.27827E+00  0.00000E+00 -0.30412E-01  0.27536E+00  0.00000E+00 -0.43016E-01  0.24093E+00  0.00000E+00 -0.54154E-01
          0.22480E+00  0.00000E+00 -0.61489E-01  0.20983E+00  0.00000E+00 -0.71888E-01  0.19845E+00  0.00000E+00 -0.80541E-01  0.18950E+00  0.00000E+00 -0.89387E-01  0.18226E+00  0.00000E+00 -0.98270E-01  0.17642E+00  0.00000E+00 -0.10681E+00
          0.17164E+00  0.00000E+00 -0.11541E+00  0.16763E+00  0.00000E+00 -0.12389E+00  0.16425E+00  0.00000E+00 -0.13234E+00  0.16135E+00  0.00000E+00 -0.14076E+00  0.15886E+00  0.00000E+00 -0.14917E+00  0.15671E+00  0.00000E+00 -0.15754E+00
          0.15485E+00  0.00000E+00 -0.16596E+00  0.15323E+00  0.00000E+00 -0.17437E+00  0.15180E+00  0.00000E+00 -0.18272E+00  0.15055E+00  0.00000E+00 -0.19136E+00  0.14939E+00  0.00000E+00 -0.19960E+00  0.14836E+00  0.00000E+00 -0.20845E+00
          0.14730E+00  0.00000E+00 -0.21712E+00  0.14640E+00  0.00000E+00 -0.22505E+00  0.14531E+00  0.00000E+00 -0.23570E+00  0.14437E+00  0.00000E+00 -0.24195E+00  0.14335E+00  0.00000E+00 -0.25157E+00  0.14176E+00  0.00000E+00 -0.26532E+00
          0.19298E+00  0.00000E+00 -0.51215E-02  0.22788E+00  0.00000E+00 -0.10614E-01  0.32572E+00  0.00000E+00 -0.31229E-01  0.29777E+00  0.00000E+00 -0.32099E-01  0.29669E+00  0.00000E+00 -0.43921E-01  0.25919E+00  0.00000E+00 -0.55845E-01
          0.24281E+00  0.00000E+00 -0.62120E-01  0.22696E+00  0.00000E+00 -0.72706E-01  0.21493E+00  0.00000E+00 -0.81298E-01  0.20543E+00  0.00000E+00 -0.90029E-01  0.19769E+00  0.00000E+00 -0.98993E-01  0.19142E+00  0.00000E+00 -0.10755E+00
          0.18627E+00  0.00000E+00 -0.11619E+00  0.18197E+00  0.00000E+00 -0.12475E+00  0.17833E+00  0.00000E+00 -0.13326E+00  0.17521E+00  0.00000E+00 -0.14177E+00  0.17253E+00  0.00000E+00 -0.15028E+00  0.17021E+00  0.00000E+00 -0.15875E+00
          0.16820E+00  0.00000E+00 -0.16728E+00  0.16645E+00  0.00000E+00 -0.17579E+00  0.16493E+00  0.00000E+00 -0.18427E+00  0.16359E+00  0.00000E+00 -0.19302E+00  0.16239E+00  0.00000E+00 -0.20135E+00  0.16133E+00  0.00000E+00 -0.21030E+00
          0.16024E+00  0.00000E+00 -0.21904E+00  0.15934E+00  0.00000E+00 -0.22704E+00  0.15821E+00  0.00000E+00 -0.23782E+00  0.15726E+00  0.00000E+00 -0.24403E+00  0.15619E+00  0.00000E+00 -0.25379E+00  0.15450E+00  0.00000E+00 -0.26761E+00
          0.21447E+00  0.00000E+00 -0.61488E-02  0.24864E+00  0.00000E+00 -0.11419E-01  0.34327E+00  0.00000E+00 -0.34315E-01  0.31716E+00  0.00000E+00 -0.34038E-01  0.31733E+00  0.00000E+00 -0.44815E-01  0.27714E+00  0.00000E+00 -0.57643E-01
          0.26072E+00  0.00000E+00 -0.62928E-01  0.24403E+00  0.00000E+00 -0.73636E-01  0.23143E+00  0.00000E+00 -0.82181E-01  0.22142E+00  0.00000E+00 -0.90772E-01  0.21323E+00  0.00000E+00 -0.99795E-01  0.20655E+00  0.00000E+00 -0.10837E+00
          0.20106E+00  0.00000E+00 -0.11705E+00  0.19647E+00  0.00000E+00 -0.12568E+00  0.19259E+00  0.00000E+00 -0.13425E+00  0.18927E+00  0.00000E+00 -0.14285E+00  0.18641E+00  0.00000E+00 -0.15145E+00  0.18393E+00  0.00000E+00 -0.16002E+00
          0.18178E+00  0.00000E+00 -0.16867E+00  0.17992E+00  0.00000E+00 -0.17729E+00  0.17829E+00  0.00000E+00 -0.18590E+00  0.17687E+00  0.00000E+00 -0.19477E+00  0.17560E+00  0.00000E+00 -0.20320E+00  0.17450E+00  0.00000E+00 -0.21229E+00
          0.17338E+00  0.00000E+00 -0.22110E+00  0.17247E+00  0.00000E+00 -0.22918E+00  0.17130E+00  0.00000E+00 -0.24011E+00  0.17034E+00  0.00000E+00 -0.24627E+00  0.16921E+00  0.00000E+00 -0.25620E+00  0.16741E+00  0.00000E+00 -0.27010E+00
          0.23824E+00  0.00000E+00 -0.67966E-02  0.27292E+00  0.00000E+00 -0.12307E-01  0.35943E+00  0.00000E+00 -0.36096E-01  0.33673E+00  0.00000E+00 -0.35956E-01  0.33745E+00  0.00000E+00 -0.45524E-01  0.29486E+00  0.00000E+00 -0.59372E-01
          0.27855E+00  0.00000E+00 -0.63811E-01  0.26105E+00  0.00000E+00 -0.74617E-01  0.24796E+00  0.00000E+00 -0.83148E-01  0.23750E+00  0.00000E+00 -0.91609E-01  0.22888E+00  0.00000E+00 -0.10068E+00  0.22184E+00  0.00000E+00 -0.10927E+00
          0.21601E+00  0.00000E+00 -0.11799E+00  0.21114E+00  0.00000E+00 -0.12670E+00  0.20704E+00  0.00000E+00 -0.13533E+00  0.20352E+00  0.00000E+00 -0.14401E+00  0.20049E+00  0.00000E+00 -0.15270E+00  0.19786E+00  0.00000E+00 -0.16137E+00
          0.19558E+00  0.00000E+00 -0.17013E+00  0.19359E+00  0.00000E+00 -0.17887E+00  0.19186E+00  0.00000E+00 -0.18760E+00  0.19036E+00  0.00000E+00 -0.19660E+00  0.18902E+00  0.00000E+00 -0.20513E+00  0.18786E+00  0.00000E+00 -0.21437E+00
          0.18670E+00  0.00000E+00 -0.22326E+00  0.18578E+00  0.00000E+00 -0.23144E+00  0.18455E+00  0.00000E+00 -0.24254E+00  0.18359E+00  0.00000E+00 -0.24863E+00  0.18240E+00  0.00000E+00 -0.25875E+00  0.18050E+00  0.00000E+00 -0.27275E+00
          0.26422E+00  0.00000E+00 -0.70719E-02  0.29948E+00  0.00000E+00 -0.13103E-01  0.37538E+00  0.00000E+00 -0.36803E-01  0.35693E+00  0.00000E+00 -0.37596E-01  0.35728E+00  0.00000E+00 -0.45960E-01  0.31256E+00  0.00000E+00 -0.60935E-01