<?xml version="1.0"?>
<VTKFile type="UnstructuredGrid" version="0.1" byte_order="LittleEndian" compressor="vtkZLibDataCompressor">
<UnstructuredGrid>
  <Piece NumberOfPoints="1800"        NumberOfCells="1"      >
    <Points>
      <DataArray type="Float32" NumberOfComponents="3" format="ascii" >
        0.46086E-01  0.00000E+00  0.24936E-02  0.31106E-01  0.00000E+00  0.37034E-02  0.15939E-01  0.00000E+00  0.39454E-02  0.22559E-01  0.00000E+00  0.98152E-02  0.68961E-02  0.00000E+00  0.85962E-02  0.10480E-01  0.00000E+00  0.15235E-01
        0.77672E-02  0.00000E+00  0.20631E-01  0.12611E-01  0.00000E+00  0.25614E-01  0.78572E-02  0.00000E+00  0.30966E-01  0.97863E-02  0.00000E+00  0.37384E-01  0.76996E-02  0.00000E+00  0.43490E-01  0.10864E-01  0.00000E+00  0.49040E-01
        0.83577E-02  0.00000E+00  0.54948E-01  0.12018E-01  0.00000E+00  0.60380E-01  0.10269E-01  0.00000E+00  0.65536E-01  0.12744E-01  0.00000E+00  0.70608E-01  0.12338E-01  0.00000E+00  0.75395E-01  0.12817E-01  0.00000E+00  0.80133E-01
        0.12648E-01  0.00000E+00  0.84694E-01  0.12500E-01  0.00000E+00  0.89269E-01  0.12131E-01  0.00000E+00  0.93854E-01  0.11808E-01  0.00000E+00  0.98581E-01  0.11516E-01  0.00000E+00  0.10340E+00  0.11091E-01  0.00000E+00  0.10814E+00
        0.10331E-01  0.00000E+00  0.11275E+00  0.96854E-02  0.00000E+00  0.11772E+00  0.99303E-02  0.00000E+00  0.12333E+00  0.95495E-02  0.00000E+00  0.12884E+00  0.72251E-02  0.00000E+00  0.13314E+00  0.74718E-02  0.00000E+00  0.13671E+00
        0.61398E-01  0.00000E+00  0.33766E-02  0.38448E-01  0.00000E+00  0.10134E-01  0.53727E-01  0.00000E+00  0.10335E-01  0.45993E-01  0.00000E+00  0.16026E-01  0.28641E-01  0.00000E+00  0.15730E-01  0.38358E-01  0.00000E+00  0.21632E-01
        0.22868E-01  0.00000E+00  0.22078E-01  0.34634E-01  0.00000E+00  0.28519E-01  0.22923E-01  0.00000E+00  0.30993E-01  0.33934E-01  0.00000E+00  0.36356E-01  0.21939E-01  0.00000E+00  0.39635E-01  0.32800E-01  0.00000E+00  0.44618E-01
        0.22325E-01  0.00000E+00  0.48787E-01  0.33679E-01  0.00000E+00  0.52972E-01  0.23531E-01  0.00000E+00  0.58112E-01  0.34986E-01  0.00000E+00  0.61901E-01  0.25675E-01  0.00000E+00  0.67154E-01  0.34782E-01  0.00000E+00  0.71203E-01
        0.29462E-01  0.00000E+00  0.76594E-01  0.32981E-01  0.00000E+00  0.82013E-01  0.31501E-01  0.00000E+00  0.87290E-01  0.31338E-01  0.00000E+00  0.92775E-01  0.30414E-01  0.00000E+00  0.98191E-01  0.30094E-01  0.00000E+00  0.10395E+00
        0.28808E-01  0.00000E+00  0.10954E+00  0.29504E-01  0.00000E+00  0.11451E+00  0.26752E-01  0.00000E+00  0.12035E+00  0.27835E-01  0.00000E+00  0.12740E+00  0.25629E-01  0.00000E+00  0.13089E+00  0.26021E-01  0.00000E+00  0.13502E+00
        0.79321E-01  0.00000E+00  0.32876E-02  0.69426E-01  0.00000E+00  0.92131E-02  0.87864E-01  0.00000E+00  0.95796E-02  0.77239E-01  0.00000E+00  0.14839E-01  0.61066E-01  0.00000E+00  0.16966E-01  0.69748E-01  0.00000E+00  0.21765E-01
        0.52203E-01  0.00000E+00  0.23807E-01  0.62096E-01  0.00000E+00  0.28001E-01  0.46741E-01  0.00000E+00  0.30936E-01  0.58138E-01  0.00000E+00  0.35448E-01  0.45528E-01  0.00000E+00  0.39296E-01  0.56970E-01  0.00000E+00  0.43637E-01
        0.44838E-01  0.00000E+00  0.47734E-01  0.56510E-01  0.00000E+00  0.52034E-01  0.45280E-01  0.00000E+00  0.56490E-01  0.56815E-01  0.00000E+00  0.60968E-01  0.46248E-01  0.00000E+00  0.65668E-01  0.56153E-01  0.00000E+00  0.70230E-01
        0.48409E-01  0.00000E+00  0.74818E-01  0.53378E-01  0.00000E+00  0.80277E-01  0.50043E-01  0.00000E+00  0.85568E-01  0.50767E-01  0.00000E+00  0.91224E-01  0.48781E-01  0.00000E+00  0.96545E-01  0.48949E-01  0.00000E+00  0.10245E+00
        0.47368E-01  0.00000E+00  0.10802E+00  0.46944E-01  0.00000E+00  0.11320E+00  0.45816E-01  0.00000E+00  0.11934E+00  0.45393E-01  0.00000E+00  0.12618E+00  0.43896E-01  0.00000E+00  0.12987E+00  0.44038E-01  0.00000E+00  0.13423E+00
        0.11623E+00  0.00000E+00  0.33194E-02  0.97445E-01  0.00000E+00  0.55558E-02  0.10753E+00  0.00000E+00  0.94506E-02  0.10222E+00  0.00000E+00  0.16632E-01  0.89423E-01  0.00000E+00  0.18252E-01  0.96814E-01  0.00000E+00  0.24233E-01
        0.80796E-01  0.00000E+00  0.24462E-01  0.89433E-01  0.00000E+00  0.30618E-01  0.73676E-01  0.00000E+00  0.31553E-01  0.83463E-01  0.00000E+00  0.37157E-01  0.69575E-01  0.00000E+00  0.39286E-01  0.80972E-01  0.00000E+00  0.44844E-01
        0.68497E-01  0.00000E+00  0.47569E-01  0.79895E-01  0.00000E+00  0.53015E-01  0.67708E-01  0.00000E+00  0.56164E-01  0.79142E-01  0.00000E+00  0.61671E-01  0.67729E-01  0.00000E+00  0.65181E-01  0.77407E-01  0.00000E+00  0.70489E-01
        0.68771E-01  0.00000E+00  0.74444E-01  0.74011E-01  0.00000E+00  0.80357E-01  0.68827E-01  0.00000E+00  0.84988E-01  0.70543E-01  0.00000E+00  0.90815E-01  0.67597E-01  0.00000E+00  0.95908E-01  0.67561E-01  0.00000E+00  0.10179E+00
        0.66291E-01  0.00000E+00  0.10738E+00  0.65065E-01  0.00000E+00  0.11234E+00  0.64493E-01  0.00000E+00  0.11849E+00  0.63428E-01  0.00000E+00  0.12532E+00  0.63744E-01  0.00000E+00  0.12893E+00  0.63169E-01  0.00000E+00  0.13317E+00
        0.14518E+00  0.00000E+00  0.33451E-02  0.13061E+00  0.00000E+00  0.60467E-02  0.12052E+00  0.00000E+00  0.11985E-01  0.13133E+00  0.00000E+00  0.16047E-01  0.11552E+00  0.00000E+00  0.19564E-01  0.12632E+00  0.00000E+00  0.23565E-01
        0.10838E+00  0.00000E+00  0.25339E-01  0.11822E+00  0.00000E+00  0.30082E-01  0.10231E+00  0.00000E+00  0.33199E-01  0.11189E+00  0.00000E+00  0.37886E-01  0.95801E-01  0.00000E+00  0.40005E-01  0.10609E+00  0.00000E+00  0.45160E-01
        0.92792E-01  0.00000E+00  0.47803E-01  0.10376E+00  0.00000E+00  0.53376E-01  0.91208E-01  0.00000E+00  0.55985E-01  0.10167E+00  0.00000E+00  0.62009E-01  0.89967E-01  0.00000E+00  0.64848E-01  0.98555E-01  0.00000E+00  0.70851E-01
        0.89341E-01  0.00000E+00  0.74308E-01  0.93811E-01  0.00000E+00  0.80705E-01  0.88353E-01  0.00000E+00  0.85156E-01  0.89561E-01  0.00000E+00  0.91046E-01  0.86904E-01  0.00000E+00  0.96185E-01  0.86305E-01  0.00000E+00  0.10197E+00
        0.85048E-01  0.00000E+00  0.10746E+00  0.84185E-01  0.00000E+00  0.11244E+00  0.83084E-01  0.00000E+00  0.11846E+00  0.82621E-01  0.00000E+00  0.12521E+00  0.81824E-01  0.00000E+00  0.12866E+00  0.81900E-01  0.00000E+00  0.13296E+00
        0.16558E+00  0.00000E+00  0.32006E-02  0.15554E+00  0.00000E+00  0.81909E-02  0.14107E+00  0.00000E+00  0.11881E-01  0.16717E+00  0.00000E+00  0.13322E-01  0.15018E+00  0.00000E+00  0.16697E-01  0.16008E+00  0.00000E+00  0.19605E-01
        0.14060E+00  0.00000E+00  0.22172E-01  0.14376E+00  0.00000E+00  0.30008E-01  0.13135E+00  0.00000E+00  0.30706E-01  0.13717E+00  0.00000E+00  0.37332E-01  0.12330E+00  0.00000E+00  0.38661E-01  0.12857E+00  0.00000E+00  0.45834E-01
        0.11719E+00  0.00000E+00  0.47755E-01  0.12575E+00  0.00000E+00  0.55317E-01  0.11452E+00  0.00000E+00  0.56667E-01  0.12347E+00  0.00000E+00  0.63964E-01  0.11226E+00  0.00000E+00  0.65568E-01  0.11889E+00  0.00000E+00  0.72458E-01
        0.10909E+00  0.00000E+00  0.75337E-01  0.11331E+00  0.00000E+00  0.82147E-01  0.10696E+00  0.00000E+00  0.86159E-01  0.10919E+00  0.00000E+00  0.92101E-01  0.10603E+00  0.00000E+00  0.97116E-01  0.10515E+00  0.00000E+00  0.10288E+00
        0.10453E+00  0.00000E+00  0.10830E+00  0.10300E+00  0.00000E+00  0.11307E+00  0.10213E+00  0.00000E+00  0.11919E+00  0.10171E+00  0.00000E+00  0.12589E+00  0.10156E+00  0.00000E+00  0.12910E+00  0.10127E+00  0.00000E+00  0.13335E+00
        0.18872E+00  0.00000E+00  0.30770E-02  0.20113E+00  0.00000E+00  0.70644E-02  0.17733E+00  0.00000E+00  0.76369E-02  0.19472E+00  0.00000E+00  0.13384E-01  0.18196E+00  0.00000E+00  0.14928E-01  0.18923E+00  0.00000E+00  0.20393E-01
        0.17498E+00  0.00000E+00  0.21728E-01  0.16732E+00  0.00000E+00  0.26386E-01  0.15424E+00  0.00000E+00  0.26895E-01  0.15428E+00  0.00000E+00  0.35204E-01  0.15079E+00  0.00000E+00  0.42886E-01  0.14099E+00  0.00000E+00  0.45141E-01
        0.15088E+00  0.00000E+00  0.52260E-01  0.13729E+00  0.00000E+00  0.53146E-01  0.14715E+00  0.00000E+00  0.60585E-01  0.13691E+00  0.00000E+00  0.61667E-01  0.13662E+00  0.00000E+00  0.68593E-01  0.13626E+00  0.00000E+00  0.75143E-01
        0.12788E+00  0.00000E+00  0.77949E-01  0.13323E+00  0.00000E+00  0.84985E-01  0.12574E+00  0.00000E+00  0.88445E-01  0.12899E+00  0.00000E+00  0.94347E-01  0.12549E+00  0.00000E+00  0.99191E-01  0.12413E+00  0.00000E+00  0.10493E+00
        0.12394E+00  0.00000E+00  0.11022E+00  0.12282E+00  0.00000E+00  0.11500E+00  0.12151E+00  0.00000E+00  0.12106E+00  0.12171E+00  0.00000E+00  0.12778E+00  0.12107E+00  0.00000E+00  0.13068E+00  0.12099E+00  0.00000E+00  0.13489E+00
        0.21304E+00  0.00000E+00  0.33155E-02  0.22441E+00  0.00000E+00  0.80673E-02  0.21299E+00  0.00000E+00  0.12617E-01  0.23474E+00  0.00000E+00  0.13032E-01  0.22214E+00  0.00000E+00  0.17687E-01  0.20624E+00  0.00000E+00  0.18439E-01
        0.20058E+00  0.00000E+00  0.24768E-01  0.18635E+00  0.00000E+00  0.28504E-01  0.17831E+00  0.00000E+00  0.32725E-01  0.16679E+00  0.00000E+00  0.34902E-01  0.17412E+00  0.00000E+00  0.42046E-01  0.16209E+00  0.00000E+00  0.43540E-01
        0.17246E+00  0.00000E+00  0.50868E-01  0.16139E+00  0.00000E+00  0.52846E-01  0.16939E+00  0.00000E+00  0.60349E-01  0.16002E+00  0.00000E+00  0.62290E-01  0.15447E+00  0.00000E+00  0.67912E-01  0.15702E+00  0.00000E+00  0.74855E-01
        0.14849E+00  0.00000E+00  0.77460E-01  0.15339E+00  0.00000E+00  0.84162E-01  0.14611E+00  0.00000E+00  0.88056E-01  0.14906E+00  0.00000E+00  0.93963E-01  0.14622E+00  0.00000E+00  0.99074E-01  0.14411E+00  0.00000E+00  0.10462E+00
        0.14449E+00  0.00000E+00  0.10984E+00  0.14313E+00  0.00000E+00  0.11467E+00  0.14167E+00  0.00000E+00  0.12068E+00  0.14226E+00  0.00000E+00  0.12734E+00  0.14171E+00  0.00000E+00  0.13019E+00  0.14143E+00  0.00000E+00  0.13441E+00
[...]
<PointData>
      <DataArray type="Float32" Name="Velocity vectors"  NumberOfComponents="3"  format="ascii" >
          0.86167E-01  0.00000E+00 -0.39478E-03  0.65732E-01  0.00000E+00 -0.71332E-02  0.56885E-01  0.00000E+00 -0.26839E-02  0.42723E-01  0.00000E+00 -0.12853E-02  0.72342E-02  0.00000E+00 -0.36631E-01  0.39725E-01  0.00000E+00 -0.39931E-01
         -0.14046E-01  0.00000E+00 -0.45475E-01  0.44176E-01  0.00000E+00 -0.59585E-01 -0.61350E-02  0.00000E+00 -0.72997E-01  0.20874E-01  0.00000E+00 -0.75316E-01 -0.98908E-02  0.00000E+00 -0.79107E-01  0.19716E-01  0.00000E+00 -0.86677E-01
         -0.24375E-01  0.00000E+00 -0.83936E-01  0.22719E-01  0.00000E+00 -0.89035E-01 -0.33302E-01  0.00000E+00 -0.87861E-01  0.21917E-01  0.00000E+00 -0.92750E-01  0.26568E-02  0.00000E+00 -0.88715E-01  0.16504E-01  0.00000E+00 -0.85820E-01
          0.15603E-01  0.00000E+00 -0.89141E-01  0.17474E-01  0.00000E+00 -0.93160E-01  0.16581E-01  0.00000E+00 -0.95952E-01  0.16564E-01  0.00000E+00 -0.96704E-01  0.17036E-01  0.00000E+00 -0.99029E-01  0.15191E-01  0.00000E+00 -0.10416E+00
          0.11723E-01  0.00000E+00 -0.10936E+00  0.11708E-01  0.00000E+00 -0.10938E+00  0.14892E-01  0.00000E+00 -0.11088E+00  0.76056E-02  0.00000E+00 -0.11862E+00  0.44782E-02  0.00000E+00 -0.12638E+00  0.46379E-02  0.00000E+00 -0.12928E+00
          0.10807E+00  0.00000E+00 -0.28836E-02  0.78486E-01  0.00000E+00 -0.11619E-01  0.93999E-01  0.00000E+00 -0.10612E-01  0.87772E-01  0.00000E+00 -0.13536E-01  0.76085E-01  0.00000E+00 -0.16915E-01  0.65470E-01  0.00000E+00 -0.25898E-01
          0.19119E-01  0.00000E+00 -0.39121E-01  0.36503E-01  0.00000E+00 -0.36767E-01  0.25284E-01  0.00000E+00 -0.41662E-01  0.40584E-01  0.00000E+00 -0.46177E-01  0.13180E-01  0.00000E+00 -0.57751E-01  0.27549E-01  0.00000E+00 -0.57283E-01
          0.92057E-02  0.00000E+00 -0.64957E-01  0.24730E-01  0.00000E+00 -0.67180E-01  0.50533E-02  0.00000E+00 -0.75214E-01  0.28307E-01  0.00000E+00 -0.84943E-01 -0.15758E-01  0.00000E+00 -0.85293E-01  0.54839E-01  0.00000E+00 -0.98542E-01
         -0.24486E-01  0.00000E+00 -0.11031E+00  0.57811E-01  0.00000E+00 -0.12489E+00  0.24482E-01  0.00000E+00 -0.12130E+00  0.35701E-01  0.00000E+00 -0.12443E+00  0.26943E-01  0.00000E+00 -0.12852E+00  0.33033E-01  0.00000E+00 -0.12867E+00
          0.22087E-01  0.00000E+00 -0.13361E+00  0.38535E-01  0.00000E+00 -0.13445E+00  0.19315E-01  0.00000E+00 -0.13781E+00  0.29217E-01  0.00000E+00 -0.13960E+00  0.24091E-01  0.00000E+00 -0.14760E+00  0.25882E-01  0.00000E+00 -0.14832E+00
          0.12471E+00  0.00000E+00 -0.12396E-02  0.11645E+00  0.00000E+00 -0.54580E-02  0.15274E+00  0.00000E+00 -0.19320E-01  0.14020E+00  0.00000E+00 -0.21609E-01  0.10733E+00  0.00000E+00 -0.22300E-01  0.11713E+00  0.00000E+00 -0.29145E-01
          0.91452E-01  0.00000E+00 -0.25802E-01  0.94308E-01  0.00000E+00 -0.37298E-01  0.49994E-01  0.00000E+00 -0.46644E-01  0.60589E-01  0.00000E+00 -0.50537E-01  0.44596E-01  0.00000E+00 -0.52435E-01  0.56781E-01  0.00000E+00 -0.59599E-01
          0.39704E-01  0.00000E+00 -0.62122E-01  0.54561E-01  0.00000E+00 -0.69403E-01  0.40794E-01  0.00000E+00 -0.74171E-01  0.62240E-01  0.00000E+00 -0.84935E-01  0.26270E-01  0.00000E+00 -0.85340E-01  0.85710E-01  0.00000E+00 -0.93982E-01
          0.59827E-02  0.00000E+00 -0.10962E+00  0.94665E-01  0.00000E+00 -0.12677E+00  0.23477E-01  0.00000E+00 -0.13128E+00  0.64254E-01  0.00000E+00 -0.12785E+00  0.33641E-01  0.00000E+00 -0.13988E+00  0.53382E-01  0.00000E+00 -0.13752E+00
          0.37746E-01  0.00000E+00 -0.14382E+00  0.42444E-01  0.00000E+00 -0.14498E+00  0.37292E-01  0.00000E+00 -0.14497E+00  0.38464E-01  0.00000E+00 -0.14768E+00  0.33652E-01  0.00000E+00 -0.15265E+00  0.35930E-01  0.00000E+00 -0.15357E+00
          0.19023E+00  0.00000E+00 -0.12363E-02  0.16606E+00  0.00000E+00 -0.33448E-02  0.18310E+00  0.00000E+00 -0.10788E-01  0.14754E+00  0.00000E+00 -0.23665E-01  0.14273E+00  0.00000E+00 -0.16398E-01  0.14792E+00  0.00000E+00 -0.22012E-01
          0.12696E+00  0.00000E+00 -0.29785E-01  0.12910E+00  0.00000E+00 -0.34546E-01  0.10113E+00  0.00000E+00 -0.43367E-01  0.99012E-01  0.00000E+00 -0.49814E-01  0.70559E-01  0.00000E+00 -0.57165E-01  0.86369E-01  0.00000E+00 -0.61717E-01
          0.71928E-01  0.00000E+00 -0.67889E-01  0.87223E-01  0.00000E+00 -0.73159E-01  0.71730E-01  0.00000E+00 -0.80563E-01  0.93497E-01  0.00000E+00 -0.84034E-01  0.62156E-01  0.00000E+00 -0.93517E-01  0.11197E+00  0.00000E+00 -0.91928E-01
          0.42108E-01  0.00000E+00 -0.10922E+00  0.12700E+00  0.00000E+00 -0.11449E+00  0.40764E-01  0.00000E+00 -0.13767E+00  0.98144E-01  0.00000E+00 -0.13012E+00  0.48705E-01  0.00000E+00 -0.14798E+00  0.65899E-01  0.00000E+00 -0.14618E+00
          0.55961E-01  0.00000E+00 -0.15035E+00  0.49046E-01  0.00000E+00 -0.15393E+00  0.50018E-01  0.00000E+00 -0.15321E+00  0.46734E-01  0.00000E+00 -0.15594E+00  0.49418E-01  0.00000E+00 -0.16075E+00  0.47626E-01  0.00000E+00 -0.16197E+00
          0.23888E+00  0.00000E+00 -0.13134E-02  0.21248E+00  0.00000E+00 -0.80450E-02  0.20185E+00  0.00000E+00 -0.10681E-01  0.20543E+00  0.00000E+00 -0.14240E-01  0.16224E+00  0.00000E+00 -0.28070E-01  0.17461E+00  0.00000E+00 -0.27978E-01
          0.15744E+00  0.00000E+00 -0.32357E-01  0.17012E+00  0.00000E+00 -0.42442E-01  0.14840E+00  0.00000E+00 -0.36473E-01  0.16014E+00  0.00000E+00 -0.50343E-01  0.11996E+00  0.00000E+00 -0.52950E-01  0.13653E+00  0.00000E+00 -0.64098E-01
          0.10766E+00  0.00000E+00 -0.70009E-01  0.13209E+00  0.00000E+00 -0.79632E-01  0.10791E+00  0.00000E+00 -0.87162E-01  0.13289E+00  0.00000E+00 -0.93276E-01  0.97328E-01  0.00000E+00 -0.10746E+00  0.14230E+00  0.00000E+00 -0.10507E+00
          0.72005E-01  0.00000E+00 -0.12338E+00  0.15208E+00  0.00000E+00 -0.12067E+00  0.65393E-01  0.00000E+00 -0.14831E+00  0.11631E+00  0.00000E+00 -0.13447E+00  0.72972E-01  0.00000E+00 -0.15116E+00  0.79703E-01  0.00000E+00 -0.14874E+00
          0.69335E-01  0.00000E+00 -0.15455E+00  0.66207E-01  0.00000E+00 -0.15715E+00  0.60471E-01  0.00000E+00 -0.15754E+00  0.61649E-01  0.00000E+00 -0.15996E+00  0.59351E-01  0.00000E+00 -0.16549E+00  0.60895E-01  0.00000E+00 -0.16677E+00
          0.25351E+00  0.00000E+00 -0.78469E-03  0.24222E+00  0.00000E+00 -0.68220E-02  0.21301E+00  0.00000E+00 -0.12247E-01  0.27128E+00  0.00000E+00 -0.13229E-01  0.21858E+00  0.00000E+00 -0.16865E-01  0.23948E+00  0.00000E+00 -0.36533E-01
          0.19851E+00  0.00000E+00 -0.19012E-01  0.22270E+00  0.00000E+00 -0.27233E-01  0.19462E+00  0.00000E+00 -0.41351E-01  0.19873E+00  0.00000E+00 -0.52368E-01  0.17947E+00  0.00000E+00 -0.56302E-01  0.18470E+00  0.00000E+00 -0.64598E-01
          0.16255E+00  0.00000E+00 -0.75426E-01  0.16919E+00  0.00000E+00 -0.79488E-01  0.15212E+00  0.00000E+00 -0.94047E-01  0.17661E+00  0.00000E+00 -0.88598E-01  0.13961E+00  0.00000E+00 -0.11554E+00  0.17480E+00  0.00000E+00 -0.11133E+00
          0.10390E+00  0.00000E+00 -0.13652E+00  0.16656E+00  0.00000E+00 -0.12446E+00  0.81320E-01  0.00000E+00 -0.15662E+00  0.14079E+00  0.00000E+00 -0.14596E+00  0.93234E-01  0.00000E+00 -0.16292E+00  0.94117E-01  0.00000E+00 -0.15967E+00
          0.94108E-01  0.00000E+00 -0.16587E+00  0.79886E-01  0.00000E+00 -0.17030E+00  0.76476E-01  0.00000E+00 -0.16975E+00  0.75435E-01  0.00000E+00 -0.17255E+00  0.75434E-01  0.00000E+00 -0.17761E+00  0.74679E-01  0.00000E+00 -0.17826E+00
          0.29665E+00  0.00000E+00  0.37797E-03  0.33042E+00  0.00000E+00 -0.80718E-02  0.27278E+00  0.00000E+00 -0.12683E-01  0.29679E+00  0.00000E+00 -0.26244E-01  0.29313E+00  0.00000E+00 -0.21286E-01  0.29310E+00  0.00000E+00 -0.22284E-01
          0.27021E+00  0.00000E+00 -0.30137E-01  0.24150E+00  0.00000E+00 -0.46247E-01  0.22046E+00  0.00000E+00 -0.49060E-01  0.23672E+00  0.00000E+00 -0.49662E-01  0.21625E+00  0.00000E+00 -0.51264E-01  0.21392E+00  0.00000E+00 -0.62899E-01
          0.21723E+00  0.00000E+00 -0.64479E-01  0.18632E+00  0.00000E+00 -0.82899E-01  0.20308E+00  0.00000E+00 -0.74232E-01  0.17596E+00  0.00000E+00 -0.99713E-01  0.18489E+00  0.00000E+00 -0.10013E+00  0.19629E+00  0.00000E+00 -0.79393E-01
          0.12336E+00  0.00000E+00 -0.13019E+00  0.18350E+00  0.00000E+00 -0.11032E+00  0.98219E-01  0.00000E+00 -0.14946E+00  0.16481E+00  0.00000E+00 -0.14432E+00  0.11660E+00  0.00000E+00 -0.16278E+00  0.10533E+00  0.00000E+00 -0.15787E+00
          0.11033E+00  0.00000E+00 -0.16810E+00  0.98222E-01  0.00000E+00 -0.16725E+00  0.87968E-01  0.00000E+00 -0.16838E+00  0.92732E-01  0.00000E+00 -0.17204E+00  0.90256E-01  0.00000E+00 -0.17610E+00  0.90998E-01  0.00000E+00 -0.17668E+00
          0.33338E+00  0.00000E+00  0.36389E-04  0.34081E+00  0.00000E+00 -0.70472E-02  0.32984E+00  0.00000E+00  0.54563E-03  0.34787E+00  0.00000E+00 -0.68156E-02  0.33617E+00  0.00000E+00 -0.17269E-01  0.30536E+00  0.00000E+00 -0.20651E-01
          0.29390E+00  0.00000E+00 -0.30922E-01  0.26769E+00  0.00000E+00 -0.26634E-01  0.24109E+00  0.00000E+00 -0.55050E-01  0.23214E+00  0.00000E+00 -0.49237E-01  0.25511E+00  0.00000E+00 -0.60029E-01  0.23514E+00  0.00000E+00 -0.62309E-01
          0.24636E+00  0.00000E+00 -0.67760E-01  0.22731E+00  0.00000E+00 -0.76179E-01  0.24954E+00  0.00000E+00 -0.82050E-01  0.23014E+00  0.00000E+00 -0.89408E-01  0.18497E+00  0.00000E+00 -0.10922E+00  0.23300E+00  0.00000E+00 -0.92481E-01
          0.15829E+00  0.00000E+00 -0.13008E+00  0.21566E+00  0.00000E+00 -0.11691E+00  0.13622E+00  0.00000E+00 -0.14973E+00  0.19762E+00  0.00000E+00 -0.14252E+00  0.15332E+00  0.00000E+00 -0.15471E+00  0.12160E+00  0.00000E+00 -0.15712E+00
          0.13428E+00  0.00000E+00 -0.16730E+00  0.11554E+00  0.00000E+00 -0.16536E+00  0.10345E+00  0.00000E+00 -0.16789E+00  0.11226E+00  0.00000E+00 -0.17211E+00  0.10951E+00  0.00000E+00 -0.17556E+00  0.10941E+00  0.00000E+00 -0.17688E+00
          0.34828E+00  0.00000E+00  0.56340E-03  0.35946E+00  0.00000E+00 -0.95403E-02  0.35868E+00  0.00000E+00 -0.44307E-02  0.39587E+00  0.00000E+00 -0.30494E-01  0.35190E+00  0.00000E+00 -0.15416E-01  0.34933E+00  0.00000E+00 -0.98456E-02
          0.32851E+00  0.00000E+00 -0.26593E-01  0.31519E+00  0.00000E+00 -0.25177E-01  0.28953E+00  0.00000E+00 -0.38285E-01  0.27231E+00  0.00000E+00 -0.44062E-01  0.29742E+00  0.00000E+00 -0.48537E-01  0.26943E+00  0.00000E+00 -0.58495E-01
          0.28591E+00  0.00000E+00 -0.61925E-01  0.25112E+00  0.00000E+00 -0.92104E-01  0.27073E+00  0.00000E+00 -0.91667E-01  0.26526E+00  0.00000E+00 -0.83352E-01  0.23265E+00  0.00000E+00 -0.10497E+00  0.25068E+00  0.00000E+00 -0.95311E-01
          0.19300E+00  0.00000E+00 -0.14006E+00  0.24320E+00  0.00000E+00 -0.11675E+00  0.16438E+00  0.00000E+00 -0.15292E+00  0.22967E+00  0.00000E+00 -0.14798E+00  0.17637E+00  0.00000E+00 -0.16274E+00  0.14717E+00  0.00000E+00 -0.16068E+00
          0.15912E+00  0.00000E+00 -0.17196E+00  0.13930E+00  0.00000E+00 -0.16990E+00  0.12577E+00  0.00000E+00 -0.17275E+00  0.13457E+00  0.00000E+00 -0.17760E+00  0.13025E+00  0.00000E+00 -0.18079E+00  0.13053E+00  0.00000E+00 -0.18197E+00
          0.37829E+00  0.00000E+00 -0.60079E-04  0.38311E+00  0.00000E+00 -0.47152E-02  0.45007E+00  0.00000E+00 -0.21825E-01  0.42049E+00  0.00000E+00 -0.23661E-01  0.42300E+00  0.00000E+00 -0.32492E-01  0.40234E+00  0.00000E+00 -0.31062E-01
          0.37505E+00  0.00000E+00 -0.38750E-01  0.36364E+00  0.00000E+00 -0.16959E-01  0.33863E+00  0.00000E+00 -0.31345E-01  0.32908E+00  0.00000E+00 -0.32482E-01  0.31235E+00  0.00000E+00 -0.59032E-01  0.30705E+00  0.00000E+00 -0.59959E-01
          0.30238E+00  0.00000E+00 -0.59690E-01  0.30806E+00  0.00000E+00 -0.64916E-01  0.26440E+00  0.00000E+00 -0.79333E-01  0.29854E+00  0.00000E+00 -0.76518E-01  0.25961E+00  0.00000E+00 -0.99458E-01  0.28759E+00  0.00000E+00 -0.90295E-01
          0.23865E+00  0.00000E+00 -0.11714E+00  0.27329E+00  0.00000E+00 -0.98729E-01  0.19232E+00  0.00000E+00 -0.14040E+00  0.25065E+00  0.00000E+00 -0.13107E+00  0.19710E+00  0.00000E+00 -0.14707E+00  0.16303E+00  0.00000E+00 -0.14562E+00
          0.17858E+00  0.00000E+00 -0.15683E+00  0.16093E+00  0.00000E+00 -0.15397E+00  0.14372E+00  0.00000E+00 -0.15742E+00  0.15494E+00  0.00000E+00 -0.16226E+00  0.14960E+00  0.00000E+00 -0.16543E+00  0.14961E+00  0.00000E+00 -0.16757E+00
          0.40630E+00  0.00000E+00 -0.48548E-03  0.46044E+00  0.00000E+00 -0.72088E-02  0.45968E+00  0.00000E+00 -0.39858E-02  0.44270E+00  0.00000E+00 -0.67119E-02  0.43688E+00  0.00000E+00 -0.17635E-01  0.41656E+00  0.00000E+00 -0.14810E-01
          0.41260E+00  0.00000E+00 -0.29829E-01  0.41081E+00  0.00000E+00 -0.38355E-01  0.39204E+00  0.00000E+00 -0.53138E-01  0.38356E+00  0.00000E+00 -0.46190E-01  0.36186E+00  0.00000E+00 -0.45614E-01  0.34114E+00  0.00000E+00 -0.52553E-01
          0.32355E+00  0.00000E+00 -0.51885E-01  0.33941E+00  0.00000E+00 -0.58569E-01  0.30993E+00  0.00000E+00 -0.76727E-01  0.34874E+00  0.00000E+00 -0.73988E-01  0.29083E+00  0.00000E+00 -0.10368E+00  0.31881E+00  0.00000E+00 -0.82971E-01
          0.26782E+00  0.00000E+00 -0.11974E+00  0.29675E+00  0.00000E+00 -0.99874E-01  0.22022E+00  0.00000E+00 -0.13730E+00  0.27626E+00  0.00000E+00 -0.12859E+00  0.22435E+00  0.00000E+00 -0.14722E+00  0.18692E+00  0.00000E+00 -0.14380E+00
          0.20211E+00  0.00000E+00 -0.15723E+00  0.18266E+00  0.00000E+00 -0.15473E+00  0.16473E+00  0.00000E+00 -0.15738E+00  0.17575E+00  0.00000E+00 -0.16302E+00  0.16994E+00  0.00000E+00 -0.16633E+00  0.17002E+00  0.00000E+00 -0.16788E+00
          0.47943E+00  0.00000E+00 -0.15426E-02  0.50655E+00  0.00000E+00 -0.74014E-02  0.49307E+00  0.00000E+00 -0.27960E-02  0.45945E+00  0.00000E+00 -0.24258E-01  0.45775E+00  0.00000E+00 -0.25213E-01  0.45099E+00  0.00000E+00 -0.18020E-01
          0.44781E+00  0.00000E+00 -0.21873E-01  0.43777E+00  0.00000E+00 -0.26754E-01  0.42932E+00  0.00000E+00 -0.33845E-01  0.41972E+00  0.00000E+00 -0.42252E-01  0.40674E+00  0.00000E+00 -0.57282E-01  0.38700E+00  0.00000E+00 -0.72399E-01
          0.37236E+00  0.00000E+00 -0.59332E-01  0.37168E+00  0.00000E+00 -0.63579E-01  0.35476E+00  0.00000E+00 -0.82647E-01  0.38596E+00  0.00000E+00 -0.75988E-01  0.32446E+00  0.00000E+00 -0.11281E+00  0.34599E+00  0.00000E+00 -0.84583E-01
          0.29278E+00  0.00000E+00 -0.12059E+00  0.32323E+00  0.00000E+00 -0.10250E+00  0.25007E+00  0.00000E+00 -0.13645E+00  0.30139E+00  0.00000E+00 -0.12395E+00  0.25498E+00  0.00000E+00 -0.14134E+00  0.21210E+00  0.00000E+00 -0.14189E+00
          0.22572E+00  0.00000E+00 -0.15224E+00  0.20588E+00  0.00000E+00 -0.14980E+00  0.18514E+00  0.00000E+00 -0.15469E+00  0.19634E+00  0.00000E+00 -0.15956E+00  0.18935E+00  0.00000E+00 -0.16286E+00  0.18926E+00  0.00000E+00 -0.16500E+00
          0.52557E+00  0.00000E+00 -0.13619E-02  0.54380E+00  0.00000E+00 -0.53219E-02  0.52612E+00  0.00000E+00 -0.37801E-02  0.49650E+00  0.00000E+00 -0.21887E-01  0.49332E+00  0.00000E+00 -0.21403E-01  0.48207E+00  0.00000E+00 -0.18064E-01
          0.47775E+00  0.00000E+00 -0.30127E-01  0.47222E+00  0.00000E+00 -0.34453E-01  0.46494E+00  0.00000E+00 -0.33734E-01  0.44846E+00  0.00000E+00 -0.38089E-01  0.43809E+00  0.00000E+00 -0.37160E-01  0.42386E+00  0.00000E+00 -0.47013E-01
          0.40963E+00  0.00000E+00 -0.57995E-01  0.38774E+00  0.00000E+00 -0.60182E-01  0.39116E+00  0.00000E+00 -0.91664E-01  0.36017E+00  0.00000E+00 -0.91813E-01  0.40528E+00  0.00000E+00 -0.83776E-01  0.34220E+00  0.00000E+00 -0.86481E-01
          0.31122E+00  0.00000E+00 -0.12174E+00  0.34356E+00  0.00000E+00 -0.95538E-01  0.26980E+00  0.00000E+00 -0.12784E+00  0.32492E+00  0.00000E+00 -0.12446E+00  0.27675E+00  0.00000E+00 -0.13648E+00  0.23162E+00  0.00000E+00 -0.14012E+00
          0.24759E+00  0.00000E+00 -0.15139E+00  0.22693E+00  0.00000E+00 -0.14729E+00  0.20496E+00  0.00000E+00 -0.15293E+00  0.21641E+00  0.00000E+00 -0.15815E+00  0.20860E+00  0.00000E+00 -0.16108E+00  0.20855E+00  0.00000E+00 -0.16309E+00
          0.56088E+00  0.00000E+00 -0.57433E-03  0.57554E+00  0.00000E+00 -0.42143E-02  0.56084E+00  0.00000E+00 -0.59724E-02  0.53265E+00  0.00000E+00 -0.20301E-01  0.53041E+00  0.00000E+00 -0.19946E-01  0.51602E+00  0.00000E+00 -0.18531E-01
          0.51243E+00  0.00000E+00 -0.27511E-01  0.50483E+00  0.00000E+00 -0.34380E-01  0.49413E+00  0.00000E+00 -0.36669E-01  0.48487E+00  0.00000E+00 -0.43112E-01  0.47853E+00  0.00000E+00 -0.43559E-01  0.46221E+00  0.00000E+00 -0.47800E-01
          0.45173E+00  0.00000E+00 -0.50851E-01  0.41866E+00  0.00000E+00 -0.56709E-01  0.41105E+00  0.00000E+00 -0.60963E-01  0.37538E+00  0.00000E+00 -0.82553E-01  0.41874E+00  0.00000E+00 -0.76909E-01  0.36165E+00  0.00000E+00 -0.78362E-01
          0.32527E+00  0.00000E+00 -0.10798E+00  0.36386E+00  0.00000E+00 -0.85197E-01  0.28754E+00  0.00000E+00 -0.11562E+00  0.34827E+00  0.00000E+00 -0.12002E+00  0.30034E+00  0.00000E+00 -0.12767E+00  0.25009E+00  0.00000E+00 -0.13291E+00
          0.26729E+00  0.00000E+00 -0.14631E+00  0.24727E+00  0.00000E+00 -0.14031E+00  0.22272E+00  0.00000E+00 -0.14684E+00  0.23617E+00  0.00000E+00 -0.15314E+00  0.22703E+00  0.00000E+00 -0.15530E+00  0.22721E+00  0.00000E+00 -0.15741E+00
          0.59186E+00  0.00000E+00 -0.12338E-03  0.60762E+00  0.00000E+00 -0.43968E-02  0.59959E+00  0.00000E+00 -0.87661E-02  0.57178E+00  0.00000E+00 -0.19290E-01  0.57208E+00  0.00000E+00 -0.20940E-01  0.55258E+00  0.00000E+00 -0.21005E-01
          0.54908E+00  0.00000E+00 -0.27498E-01  0.53986E+00  0.00000E+00 -0.36400E-01  0.52938E+00  0.00000E+00 -0.37271E-01  0.51705E+00  0.00000E+00 -0.43270E-01  0.50827E+00  0.00000E+00 -0.46423E-01  0.49513E+00  0.00000E+00 -0.50862E-01
          0.48384E+00  0.00000E+00 -0.49181E-01  0.46706E+00  0.00000E+00 -0.65950E-01  0.44622E+00  0.00000E+00 -0.55001E-01  0.43297E+00  0.00000E+00 -0.75468E-01  0.39726E+00  0.00000E+00 -0.81642E-01  0.39312E+00  0.00000E+00 -0.61925E-01
          0.34259E+00  0.00000E+00 -0.93473E-01  0.38975E+00  0.00000E+00 -0.77665E-01  0.30905E+00  0.00000E+00 -0.10530E+00  0.37475E+00  0.00000E+00 -0.11258E+00  0.33007E+00  0.00000E+00 -0.11518E+00  0.27190E+00  0.00000E+00 -0.12674E+00
          0.28946E+00  0.00000E+00 -0.13846E+00  0.26914E+00  0.00000E+00 -0.13245E+00  0.24289E+00  0.00000E+00 -0.13977E+00  0.25763E+00  0.00000E+00 -0.14693E+00  0.24776E+00  0.00000E+00 -0.14934E+00  0.24792E+00  0.00000E+00 -0.15178E+00
          0.62645E+00  0.00000E+00 -0.17809E-03  0.64511E+00  0.00000E+00 -0.57831E-02  0.63891E+00  0.00000E+00 -0.11620E-01  0.61314E+00  0.00000E+00 -0.18085E-01  0.61773E+00  0.00000E+00 -0.23813E-01  0.59293E+00  0.00000E+00 -0.22830E-01
          0.58784E+00  0.00000E+00 -0.27502E-01  0.57769E+00  0.00000E+00 -0.39017E-01  0.56799E+00  0.00000E+00 -0.39508E-01  0.55254E+00  0.00000E+00 -0.44874E-01  0.54349E+00  0.00000E+00 -0.46289E-01  0.52947E+00  0.00000E+00 -0.52507E-01
          0.51708E+00  0.00000E+00 -0.53139E-01  0.49962E+00  0.00000E+00 -0.62414E-01  0.48138E+00  0.00000E+00 -0.64380E-01  0.46367E+00  0.00000E+00 -0.62902E-01  0.42947E+00  0.00000E+00 -0.78397E-01  0.41058E+00  0.00000E+00 -0.69846E-01
          0.36719E+00  0.00000E+00 -0.10283E+00  0.41697E+00  0.00000E+00 -0.86858E-01  0.34112E+00  0.00000E+00 -0.11007E+00  0.40784E+00  0.00000E+00 -0.11954E+00  0.36112E+00  0.00000E+00 -0.11972E+00  0.30151E+00  0.00000E+00 -0.13474E+00
          0.31808E+00  0.00000E+00 -0.14251E+00  0.29705E+00  0.00000E+00 -0.13888E+00  0.26916E+00  0.00000E+00 -0.14660E+00  0.28308E+00  0.00000E+00 -0.15378E+00  0.27228E+00  0.00000E+00 -0.15668E+00  0.27213E+00  0.00000E+00 -0.15920E+00
          0.67209E+00  0.00000E+00  0.20448E-07  0.67534E+00  0.00000E+00 -0.72992E-03  0.69677E+00  0.00000E+00 -0.74283E-02  0.64812E+00  0.00000E+00 -0.10205E-01  0.67318E+00  0.00000E+00 -0.31195E-01  0.63333E+00  0.00000E+00 -0.19868E-01