<?xml version="1.0"?>
<VTKFile type="UnstructuredGrid" version="0.1" byte_order="LittleEndian" compressor="vtkZLibDataCompressor">
<UnstructuredGrid>
  <Piece NumberOfPoints="1800"        NumberOfCells="1"      >
    <Points>
      <DataArray type="Float32" NumberOfComponents="3" format="ascii" >
        0.58424E-02  0.00000E+00  0.42008E-02  0.54534E-02  0.00000E+00  0.13598E-01  0.54171E-02  0.00000E+00  0.22637E-01  0.54228E-02  0.00000E+00  0.31796E-01  0.54190E-02  0.00000E+00  0.40923E-01  0.54149E-02  0.00000E+00  0.50060E-01
        0.54044E-02  0.00000E+00  0.59206E-01  0.53925E-02  0.00000E+00  0.68370E-01  0.53786E-02  0.00000E+00  0.77554E-01  0.53635E-02  0.00000E+00  0.86762E-01  0.53476E-02  0.00000E+00  0.95996E-01  0.53311E-02  0.00000E+00  0.10526E+00
        0.53142E-02  0.00000E+00  0.11455E+00  0.52970E-02  0.00000E+00  0.12387E+00  0.52797E-02  0.00000E+00  0.13322E+00  0.52624E-02  0.00000E+00  0.14260E+00  0.52452E-02  0.00000E+00  0.15201E+00  0.52283E-02  0.00000E+00  0.16145E+00
        0.52116E-02  0.00000E+00  0.17092E+00  0.51954E-02  0.00000E+00  0.18043E+00  0.51797E-02  0.00000E+00  0.18996E+00  0.51646E-02  0.00000E+00  0.19953E+00  0.51508E-02  0.00000E+00  0.20912E+00  0.51372E-02  0.00000E+00  0.21873E+00
        0.51271E-02  0.00000E+00  0.22838E+00  0.51149E-02  0.00000E+00  0.23804E+00  0.51133E-02  0.00000E+00  0.24773E+00  0.50977E-02  0.00000E+00  0.25741E+00  0.51151E-02  0.00000E+00  0.26718E+00  0.50683E-02  0.00000E+00  0.27670E+00
        0.16899E-01  0.00000E+00  0.46624E-02  0.16419E-01  0.00000E+00  0.13962E-01  0.16345E-01  0.00000E+00  0.22898E-01  0.16358E-01  0.00000E+00  0.31980E-01  0.16331E-01  0.00000E+00  0.41067E-01  0.16313E-01  0.00000E+00  0.50170E-01
        0.16282E-01  0.00000E+00  0.59297E-01  0.16249E-01  0.00000E+00  0.68445E-01  0.16211E-01  0.00000E+00  0.77616E-01  0.16170E-01  0.00000E+00  0.86812E-01  0.16127E-01  0.00000E+00  0.96034E-01  0.16083E-01  0.00000E+00  0.10528E+00
        0.16037E-01  0.00000E+00  0.11456E+00  0.15990E-01  0.00000E+00  0.12387E+00  0.15942E-01  0.00000E+00  0.13321E+00  0.15894E-01  0.00000E+00  0.14257E+00  0.15847E-01  0.00000E+00  0.15197E+00  0.15800E-01  0.00000E+00  0.16140E+00
        0.15753E-01  0.00000E+00  0.17086E+00  0.15707E-01  0.00000E+00  0.18035E+00  0.15663E-01  0.00000E+00  0.18987E+00  0.15620E-01  0.00000E+00  0.19943E+00  0.15578E-01  0.00000E+00  0.20901E+00  0.15539E-01  0.00000E+00  0.21861E+00
        0.15504E-01  0.00000E+00  0.22825E+00  0.15469E-01  0.00000E+00  0.23789E+00  0.15445E-01  0.00000E+00  0.24759E+00  0.15409E-01  0.00000E+00  0.25725E+00  0.15400E-01  0.00000E+00  0.26701E+00  0.15359E-01  0.00000E+00  0.27659E+00
        0.27690E-01  0.00000E+00  0.47214E-02  0.27352E-01  0.00000E+00  0.14095E-01  0.27283E-01  0.00000E+00  0.23081E-01  0.27255E-01  0.00000E+00  0.32186E-01  0.27217E-01  0.00000E+00  0.41289E-01  0.27174E-01  0.00000E+00  0.50396E-01
        0.27121E-01  0.00000E+00  0.59525E-01  0.27062E-01  0.00000E+00  0.68672E-01  0.26998E-01  0.00000E+00  0.77840E-01  0.26929E-01  0.00000E+00  0.87032E-01  0.26856E-01  0.00000E+00  0.96248E-01  0.26781E-01  0.00000E+00  0.10549E+00
        0.26703E-01  0.00000E+00  0.11476E+00  0.26623E-01  0.00000E+00  0.12406E+00  0.26543E-01  0.00000E+00  0.13339E+00  0.26462E-01  0.00000E+00  0.14275E+00  0.26381E-01  0.00000E+00  0.15213E+00  0.26300E-01  0.00000E+00  0.16155E+00
        0.26221E-01  0.00000E+00  0.17100E+00  0.26142E-01  0.00000E+00  0.18048E+00  0.26066E-01  0.00000E+00  0.18999E+00  0.25992E-01  0.00000E+00  0.19953E+00  0.25922E-01  0.00000E+00  0.20911E+00  0.25856E-01  0.00000E+00  0.21870E+00
        0.25795E-01  0.00000E+00  0.22833E+00  0.25743E-01  0.00000E+00  0.23797E+00  0.25698E-01  0.00000E+00  0.24766E+00  0.25661E-01  0.00000E+00  0.25732E+00  0.25643E-01  0.00000E+00  0.26710E+00  0.25639E-01  0.00000E+00  0.27662E+00
        0.38553E-01  0.00000E+00  0.46740E-02  0.38364E-01  0.00000E+00  0.14084E-01  0.38299E-01  0.00000E+00  0.23103E-01  0.38269E-01  0.00000E+00  0.32238E-01  0.38222E-01  0.00000E+00  0.41357E-01  0.38166E-01  0.00000E+00  0.50477E-01
        0.38096E-01  0.00000E+00  0.59614E-01  0.38015E-01  0.00000E+00  0.68766E-01  0.37927E-01  0.00000E+00  0.77935E-01  0.37831E-01  0.00000E+00  0.87127E-01  0.37730E-01  0.00000E+00  0.96341E-01  0.37625E-01  0.00000E+00  0.10558E+00
        0.37516E-01  0.00000E+00  0.11484E+00  0.37404E-01  0.00000E+00  0.12414E+00  0.37291E-01  0.00000E+00  0.13346E+00  0.37177E-01  0.00000E+00  0.14281E+00  0.37063E-01  0.00000E+00  0.15219E+00  0.36949E-01  0.00000E+00  0.16160E+00
        0.36836E-01  0.00000E+00  0.17104E+00  0.36724E-01  0.00000E+00  0.18051E+00  0.36616E-01  0.00000E+00  0.19001E+00  0.36511E-01  0.00000E+00  0.19954E+00  0.36410E-01  0.00000E+00  0.20910E+00  0.36316E-01  0.00000E+00  0.21868E+00
        0.36229E-01  0.00000E+00  0.22830E+00  0.36152E-01  0.00000E+00  0.23793E+00  0.36085E-01  0.00000E+00  0.24761E+00  0.36030E-01  0.00000E+00  0.25725E+00  0.35992E-01  0.00000E+00  0.26700E+00  0.35960E-01  0.00000E+00  0.27655E+00
        0.49408E-01  0.00000E+00  0.46799E-02  0.49308E-01  0.00000E+00  0.14082E-01  0.49260E-01  0.00000E+00  0.23108E-01  0.49225E-01  0.00000E+00  0.32246E-01  0.49173E-01  0.00000E+00  0.41368E-01  0.49105E-01  0.00000E+00  0.50493E-01
        0.49019E-01  0.00000E+00  0.59633E-01  0.48919E-01  0.00000E+00  0.68786E-01  0.48807E-01  0.00000E+00  0.77956E-01  0.48686E-01  0.00000E+00  0.87147E-01  0.48557E-01  0.00000E+00  0.96359E-01  0.48422E-01  0.00000E+00  0.10560E+00
        0.48282E-01  0.00000E+00  0.11486E+00  0.48139E-01  0.00000E+00  0.12414E+00  0.47992E-01  0.00000E+00  0.13346E+00  0.47844E-01  0.00000E+00  0.14280E+00  0.47696E-01  0.00000E+00  0.15218E+00  0.47547E-01  0.00000E+00  0.16158E+00
        0.47399E-01  0.00000E+00  0.17101E+00  0.47252E-01  0.00000E+00  0.18048E+00  0.47109E-01  0.00000E+00  0.18997E+00  0.46970E-01  0.00000E+00  0.19949E+00  0.46837E-01  0.00000E+00  0.20905E+00  0.46711E-01  0.00000E+00  0.21863E+00
        0.46594E-01  0.00000E+00  0.22824E+00  0.46489E-01  0.00000E+00  0.23786E+00  0.46400E-01  0.00000E+00  0.24754E+00  0.46328E-01  0.00000E+00  0.25718E+00  0.46282E-01  0.00000E+00  0.26694E+00  0.46261E-01  0.00000E+00  0.27646E+00
        0.60279E-01  0.00000E+00  0.46719E-02  0.60254E-01  0.00000E+00  0.14073E-01  0.60225E-01  0.00000E+00  0.23101E-01  0.60189E-01  0.00000E+00  0.32237E-01  0.60133E-01  0.00000E+00  0.41357E-01  0.60054E-01  0.00000E+00  0.50478E-01
        0.59953E-01  0.00000E+00  0.59615E-01  0.59834E-01  0.00000E+00  0.68766E-01  0.59701E-01  0.00000E+00  0.77933E-01  0.59556E-01  0.00000E+00  0.87120E-01  0.59401E-01  0.00000E+00  0.96328E-01  0.59238E-01  0.00000E+00  0.10556E+00
        0.59068E-01  0.00000E+00  0.11482E+00  0.58894E-01  0.00000E+00  0.12410E+00  0.58716E-01  0.00000E+00  0.13341E+00  0.58535E-01  0.00000E+00  0.14275E+00  0.58354E-01  0.00000E+00  0.15212E+00  0.58172E-01  0.00000E+00  0.16151E+00
        0.57990E-01  0.00000E+00  0.17094E+00  0.57811E-01  0.00000E+00  0.18040E+00  0.57636E-01  0.00000E+00  0.18989E+00  0.57465E-01  0.00000E+00  0.19941E+00  0.57302E-01  0.00000E+00  0.20895E+00  0.57148E-01  0.00000E+00  0.21853E+00
        0.57005E-01  0.00000E+00  0.22813E+00  0.56878E-01  0.00000E+00  0.23775E+00  0.56769E-01  0.00000E+00  0.24742E+00  0.56682E-01  0.00000E+00  0.25705E+00  0.56619E-01  0.00000E+00  0.26679E+00  0.56583E-01  0.00000E+00  0.27632E+00
        0.71167E-01  0.00000E+00  0.46648E-02  0.71200E-01  0.00000E+00  0.14058E-01  0.71194E-01  0.00000E+00  0.23082E-01  0.71159E-01  0.00000E+00  0.32212E-01  0.71098E-01  0.00000E+00  0.41324E-01  0.71008E-01  0.00000E+00  0.50439E-01
        0.70893E-01  0.00000E+00  0.59569E-01  0.70756E-01  0.00000E+00  0.68713E-01  0.70601E-01  0.00000E+00  0.77873E-01  0.70432E-01  0.00000E+00  0.87054E-01  0.70250E-01  0.00000E+00  0.96256E-01  0.70059E-01  0.00000E+00  0.10548E+00
        0.69860E-01  0.00000E+00  0.11473E+00  0.69655E-01  0.00000E+00  0.12401E+00  0.69446E-01  0.00000E+00  0.13331E+00  0.69233E-01  0.00000E+00  0.14265E+00  0.69017E-01  0.00000E+00  0.15201E+00  0.68802E-01  0.00000E+00  0.16140E+00
        0.68586E-01  0.00000E+00  0.17082E+00  0.68373E-01  0.00000E+00  0.18027E+00  0.68164E-01  0.00000E+00  0.18975E+00  0.67960E-01  0.00000E+00  0.19927E+00  0.67764E-01  0.00000E+00  0.20881E+00  0.67578E-01  0.00000E+00  0.21838E+00
        0.67406E-01  0.00000E+00  0.22798E+00  0.67251E-01  0.00000E+00  0.23759E+00  0.67118E-01  0.00000E+00  0.24726E+00  0.67010E-01  0.00000E+00  0.25688E+00  0.66937E-01  0.00000E+00  0.26663E+00  0.66900E-01  0.00000E+00  0.27614E+00
        0.82074E-01  0.00000E+00  0.46571E-02  0.82155E-01  0.00000E+00  0.14040E-01  0.82172E-01  0.00000E+00  0.23055E-01  0.82140E-01  0.00000E+00  0.32174E-01  0.82074E-01  0.00000E+00  0.41277E-01  0.81973E-01  0.00000E+00  0.50381E-01
        0.81843E-01  0.00000E+00  0.59501E-01  0.81687E-01  0.00000E+00  0.68635E-01  0.81510E-01  0.00000E+00  0.77786E-01  0.81317E-01  0.00000E+00  0.86958E-01  0.81109E-01  0.00000E+00  0.96151E-01  0.80890E-01  0.00000E+00  0.10537E+00
        0.80661E-01  0.00000E+00  0.11461E+00  0.80425E-01  0.00000E+00  0.12388E+00  0.80183E-01  0.00000E+00  0.13318E+00  0.79937E-01  0.00000E+00  0.14250E+00  0.79688E-01  0.00000E+00  0.15186E+00  0.79439E-01  0.00000E+00  0.16124E+00
        0.79189E-01  0.00000E+00  0.17066E+00  0.78942E-01  0.00000E+00  0.18011E+00  0.78699E-01  0.00000E+00  0.18958E+00  0.78462E-01  0.00000E+00  0.19909E+00  0.78235E-01  0.00000E+00  0.20863E+00  0.78019E-01  0.00000E+00  0.21819E+00
        0.77820E-01  0.00000E+00  0.22779E+00  0.77641E-01  0.00000E+00  0.23739E+00  0.77486E-01  0.00000E+00  0.24705E+00  0.77363E-01  0.00000E+00  0.25667E+00  0.77276E-01  0.00000E+00  0.26642E+00  0.77229E-01  0.00000E+00  0.27592E+00
[...]
<PointData>
      <DataArray type="Float32" Name="Velocity vectors"  NumberOfComponents="3"  format="ascii" >
          0.10143E-01  0.00000E+00 -0.70883E-02  0.47011E-02  0.00000E+00 -0.13180E-01  0.37056E-02  0.00000E+00 -0.20091E-01  0.42487E-02  0.00000E+00 -0.26887E-01  0.41382E-02  0.00000E+00 -0.33991E-01  0.40995E-02  0.00000E+00 -0.40967E-01
          0.40177E-02  0.00000E+00 -0.47981E-01  0.38853E-02  0.00000E+00 -0.54854E-01  0.37444E-02  0.00000E+00 -0.61606E-01  0.35838E-02  0.00000E+00 -0.68192E-01  0.34163E-02  0.00000E+00 -0.74596E-01  0.32459E-02  0.00000E+00 -0.80807E-01
          0.30750E-02  0.00000E+00 -0.86818E-01  0.29073E-02  0.00000E+00 -0.92623E-01  0.27433E-02  0.00000E+00 -0.98221E-01  0.25864E-02  0.00000E+00 -0.10361E+00  0.24373E-02  0.00000E+00 -0.10879E+00  0.22982E-02  0.00000E+00 -0.11376E+00
          0.21648E-02  0.00000E+00 -0.11853E+00  0.20379E-02  0.00000E+00 -0.12309E+00  0.19229E-02  0.00000E+00 -0.12747E+00  0.18299E-02  0.00000E+00 -0.13165E+00  0.17449E-02  0.00000E+00 -0.13572E+00  0.16747E-02  0.00000E+00 -0.13966E+00
          0.16090E-02  0.00000E+00 -0.14351E+00  0.15491E-02  0.00000E+00 -0.14725E+00  0.15143E-02  0.00000E+00 -0.15090E+00  0.14224E-02  0.00000E+00 -0.15456E+00  0.14767E-02  0.00000E+00 -0.15765E+00  0.79346E-03  0.00000E+00 -0.16248E+00
          0.18625E-01  0.00000E+00 -0.25315E-02  0.12635E-01  0.00000E+00 -0.85356E-02  0.11703E-01  0.00000E+00 -0.16236E-01  0.12215E-01  0.00000E+00 -0.23932E-01  0.11916E-01  0.00000E+00 -0.31425E-01  0.11728E-01  0.00000E+00 -0.38636E-01
          0.11417E-01  0.00000E+00 -0.45829E-01  0.11049E-01  0.00000E+00 -0.52736E-01  0.10653E-01  0.00000E+00 -0.59512E-01  0.10228E-01  0.00000E+00 -0.66091E-01  0.97902E-02  0.00000E+00 -0.72485E-01  0.93461E-02  0.00000E+00 -0.78696E-01
          0.89014E-02  0.00000E+00 -0.84713E-01  0.84621E-02  0.00000E+00 -0.90539E-01  0.80316E-02  0.00000E+00 -0.96172E-01  0.76127E-02  0.00000E+00 -0.10161E+00  0.72066E-02  0.00000E+00 -0.10685E+00  0.68180E-02  0.00000E+00 -0.11189E+00
          0.64481E-02  0.00000E+00 -0.11675E+00  0.61059E-02  0.00000E+00 -0.12142E+00  0.57927E-02  0.00000E+00 -0.12593E+00  0.55244E-02  0.00000E+00 -0.13025E+00  0.53250E-02  0.00000E+00 -0.13445E+00  0.51553E-02  0.00000E+00 -0.13850E+00
          0.50004E-02  0.00000E+00 -0.14246E+00  0.48725E-02  0.00000E+00 -0.14631E+00  0.47916E-02  0.00000E+00 -0.14998E+00  0.46506E-02  0.00000E+00 -0.15391E+00  0.46128E-02  0.00000E+00 -0.15680E+00  0.42181E-02  0.00000E+00 -0.16256E+00
          0.26520E-01  0.00000E+00 -0.25374E-02  0.22078E-01  0.00000E+00 -0.78969E-02  0.21259E-01  0.00000E+00 -0.15434E-01  0.21342E-01  0.00000E+00 -0.22773E-01  0.20925E-01  0.00000E+00 -0.29941E-01  0.20451E-01  0.00000E+00 -0.36925E-01
          0.19867E-01  0.00000E+00 -0.43967E-01  0.19218E-01  0.00000E+00 -0.50746E-01  0.18520E-01  0.00000E+00 -0.57445E-01  0.17793E-01  0.00000E+00 -0.63963E-01  0.17050E-01  0.00000E+00 -0.70315E-01  0.16301E-01  0.00000E+00 -0.76501E-01
          0.15555E-01  0.00000E+00 -0.82507E-01  0.14820E-01  0.00000E+00 -0.88337E-01  0.14102E-01  0.00000E+00 -0.93989E-01  0.13405E-01  0.00000E+00 -0.99456E-01  0.12737E-01  0.00000E+00 -0.10475E+00  0.12102E-01  0.00000E+00 -0.10986E+00
          0.11504E-01  0.00000E+00 -0.11481E+00  0.10947E-01  0.00000E+00 -0.11957E+00  0.10447E-01  0.00000E+00 -0.12419E+00  0.10006E-01  0.00000E+00 -0.12864E+00  0.96231E-02  0.00000E+00 -0.13297E+00  0.92895E-02  0.00000E+00 -0.13710E+00
          0.89967E-02  0.00000E+00 -0.14116E+00  0.87594E-02  0.00000E+00 -0.14509E+00  0.85424E-02  0.00000E+00 -0.14880E+00  0.83700E-02  0.00000E+00 -0.15286E+00  0.81955E-02  0.00000E+00 -0.15570E+00  0.80039E-02  0.00000E+00 -0.16167E+00
          0.34211E-01  0.00000E+00 -0.24026E-02  0.31283E-01  0.00000E+00 -0.77756E-02  0.30440E-01  0.00000E+00 -0.15186E-01  0.30278E-01  0.00000E+00 -0.22353E-01  0.29749E-01  0.00000E+00 -0.29404E-01  0.29099E-01  0.00000E+00 -0.36282E-01
          0.28313E-01  0.00000E+00 -0.43215E-01  0.27423E-01  0.00000E+00 -0.49903E-01  0.26465E-01  0.00000E+00 -0.56528E-01  0.25465E-01  0.00000E+00 -0.62985E-01  0.24438E-01  0.00000E+00 -0.69293E-01  0.23403E-01  0.00000E+00 -0.75450E-01
          0.22370E-01  0.00000E+00 -0.81439E-01  0.21350E-01  0.00000E+00 -0.87264E-01  0.20352E-01  0.00000E+00 -0.92923E-01  0.19382E-01  0.00000E+00 -0.98410E-01  0.18448E-01  0.00000E+00 -0.10373E+00  0.17557E-01  0.00000E+00 -0.10888E+00
          0.16718E-01  0.00000E+00 -0.11388E+00  0.15940E-01  0.00000E+00 -0.11870E+00  0.15232E-01  0.00000E+00 -0.12340E+00  0.14601E-01  0.00000E+00 -0.12790E+00  0.14055E-01  0.00000E+00 -0.13231E+00  0.13589E-01  0.00000E+00 -0.13653E+00
          0.13190E-01  0.00000E+00 -0.14069E+00  0.12878E-01  0.00000E+00 -0.14473E+00  0.12624E-01  0.00000E+00 -0.14858E+00  0.12435E-01  0.00000E+00 -0.15275E+00  0.12335E-01  0.00000E+00 -0.15590E+00  0.12129E-01  0.00000E+00 -0.16180E+00
          0.41989E-01  0.00000E+00 -0.24952E-02  0.40343E-01  0.00000E+00 -0.78091E-02  0.39605E-01  0.00000E+00 -0.15128E-01  0.39239E-01  0.00000E+00 -0.22254E-01  0.38585E-01  0.00000E+00 -0.29290E-01  0.37762E-01  0.00000E+00 -0.36127E-01
          0.36768E-01  0.00000E+00 -0.43008E-01  0.35649E-01  0.00000E+00 -0.49650E-01  0.34445E-01  0.00000E+00 -0.56225E-01  0.33185E-01  0.00000E+00 -0.62637E-01  0.31891E-01  0.00000E+00 -0.68906E-01  0.30583E-01  0.00000E+00 -0.75029E-01
          0.29278E-01  0.00000E+00 -0.80993E-01  0.27986E-01  0.00000E+00 -0.86803E-01  0.26722E-01  0.00000E+00 -0.92454E-01  0.25494E-01  0.00000E+00 -0.97942E-01  0.24314E-01  0.00000E+00 -0.10328E+00  0.23191E-01  0.00000E+00 -0.10845E+00
          0.22133E-01  0.00000E+00 -0.11347E+00  0.21151E-01  0.00000E+00 -0.11833E+00  0.20252E-01  0.00000E+00 -0.12307E+00  0.19442E-01  0.00000E+00 -0.12762E+00  0.18720E-01  0.00000E+00 -0.13210E+00  0.18095E-01  0.00000E+00 -0.13637E+00
          0.17562E-01  0.00000E+00 -0.14059E+00  0.17121E-01  0.00000E+00 -0.14468E+00  0.16781E-01  0.00000E+00 -0.14861E+00  0.16491E-01  0.00000E+00 -0.15281E+00  0.16322E-01  0.00000E+00 -0.15596E+00  0.16176E-01  0.00000E+00 -0.16202E+00
          0.49887E-01  0.00000E+00 -0.25575E-02  0.49274E-01  0.00000E+00 -0.78990E-02  0.48631E-01  0.00000E+00 -0.15186E-01  0.48087E-01  0.00000E+00 -0.22308E-01  0.47307E-01  0.00000E+00 -0.29340E-01  0.46315E-01  0.00000E+00 -0.36170E-01
          0.45123E-01  0.00000E+00 -0.43046E-01  0.43784E-01  0.00000E+00 -0.49681E-01  0.42342E-01  0.00000E+00 -0.56244E-01  0.40831E-01  0.00000E+00 -0.62642E-01  0.39279E-01  0.00000E+00 -0.68894E-01  0.37709E-01  0.00000E+00 -0.75000E-01
          0.36139E-01  0.00000E+00 -0.80948E-01  0.34585E-01  0.00000E+00 -0.86744E-01  0.33061E-01  0.00000E+00 -0.92385E-01  0.31578E-01  0.00000E+00 -0.97868E-01  0.30150E-01  0.00000E+00 -0.10320E+00  0.28786E-01  0.00000E+00 -0.10837E+00
          0.27498E-01  0.00000E+00 -0.11341E+00  0.26296E-01  0.00000E+00 -0.11827E+00  0.25189E-01  0.00000E+00 -0.12302E+00  0.24189E-01  0.00000E+00 -0.12759E+00  0.23303E-01  0.00000E+00 -0.13209E+00  0.22533E-01  0.00000E+00 -0.13640E+00
          0.21888E-01  0.00000E+00 -0.14067E+00  0.21361E-01  0.00000E+00 -0.14483E+00  0.20965E-01  0.00000E+00 -0.14882E+00  0.20683E-01  0.00000E+00 -0.15312E+00  0.20524E-01  0.00000E+00 -0.15638E+00  0.20376E-01  0.00000E+00 -0.16251E+00
          0.57917E-01  0.00000E+00 -0.26229E-02  0.58136E-01  0.00000E+00 -0.79989E-02  0.57644E-01  0.00000E+00 -0.15281E-01  0.56978E-01  0.00000E+00 -0.22443E-01  0.56078E-01  0.00000E+00 -0.29513E-01  0.54915E-01  0.00000E+00 -0.36381E-01
          0.53525E-01  0.00000E+00 -0.43280E-01  0.51965E-01  0.00000E+00 -0.49933E-01  0.50284E-01  0.00000E+00 -0.56506E-01  0.48523E-01  0.00000E+00 -0.62909E-01  0.46714E-01  0.00000E+00 -0.69161E-01  0.44884E-01  0.00000E+00 -0.75263E-01
          0.43054E-01  0.00000E+00 -0.81205E-01  0.41241E-01  0.00000E+00 -0.86993E-01  0.39463E-01  0.00000E+00 -0.92626E-01  0.37734E-01  0.00000E+00 -0.98103E-01  0.36068E-01  0.00000E+00 -0.10343E+00  0.34478E-01  0.00000E+00 -0.10860E+00
          0.32977E-01  0.00000E+00 -0.11364E+00  0.31576E-01  0.00000E+00 -0.11852E+00  0.30286E-01  0.00000E+00 -0.12328E+00  0.29116E-01  0.00000E+00 -0.12788E+00  0.28076E-01  0.00000E+00 -0.13241E+00  0.27172E-01  0.00000E+00 -0.13675E+00
          0.26411E-01  0.00000E+00 -0.14107E+00  0.25790E-01  0.00000E+00 -0.14527E+00  0.25318E-01  0.00000E+00 -0.14932E+00  0.24960E-01  0.00000E+00 -0.15365E+00  0.24753E-01  0.00000E+00 -0.15693E+00  0.24573E-01  0.00000E+00 -0.16315E+00
          0.66092E-01  0.00000E+00 -0.26925E-02  0.67003E-01  0.00000E+00 -0.81225E-02  0.66688E-01  0.00000E+00 -0.15436E-01  0.65918E-01  0.00000E+00 -0.22662E-01  0.64890E-01  0.00000E+00 -0.29790E-01  0.63552E-01  0.00000E+00 -0.36715E-01
          0.61963E-01  0.00000E+00 -0.43659E-01  0.60182E-01  0.00000E+00 -0.50351E-01  0.58263E-01  0.00000E+00 -0.56955E-01  0.56255E-01  0.00000E+00 -0.63382E-01  0.54192E-01  0.00000E+00 -0.69652E-01  0.52105E-01  0.00000E+00 -0.75767E-01
          0.50018E-01  0.00000E+00 -0.81717E-01  0.47951E-01  0.00000E+00 -0.87511E-01  0.45922E-01  0.00000E+00 -0.93146E-01  0.43948E-01  0.00000E+00 -0.98624E-01  0.42042E-01  0.00000E+00 -0.10395E+00  0.40221E-01  0.00000E+00 -0.10913E+00
          0.38496E-01  0.00000E+00 -0.11416E+00  0.36884E-01  0.00000E+00 -0.11904E+00  0.35395E-01  0.00000E+00 -0.12382E+00  0.34043E-01  0.00000E+00 -0.12842E+00  0.32840E-01  0.00000E+00 -0.13296E+00  0.31793E-01  0.00000E+00 -0.13733E+00
          0.30915E-01  0.00000E+00 -0.14167E+00  0.30199E-01  0.00000E+00 -0.14590E+00  0.29664E-01  0.00000E+00 -0.15000E+00  0.29277E-01  0.00000E+00 -0.15439E+00  0.29068E-01  0.00000E+00 -0.15773E+00  0.28864E-01  0.00000E+00 -0.16404E+00
          0.74414E-01  0.00000E+00 -0.27592E-02  0.75920E-01  0.00000E+00 -0.82591E-02  0.75802E-01  0.00000E+00 -0.15627E-01  0.74958E-01  0.00000E+00 -0.22942E-01  0.73807E-01  0.00000E+00 -0.30148E-01  0.72292E-01  0.00000E+00 -0.37154E-01
          0.70497E-01  0.00000E+00 -0.44165E-01  0.68488E-01  0.00000E+00 -0.50915E-01  0.66326E-01  0.00000E+00 -0.57564E-01  0.64064E-01  0.00000E+00 -0.64029E-01  0.61741E-01  0.00000E+00 -0.70329E-01  0.59393E-01  0.00000E+00 -0.76465E-01
          0.57044E-01  0.00000E+00 -0.82432E-01  0.54717E-01  0.00000E+00 -0.88236E-01  0.52433E-01  0.00000E+00 -0.93879E-01  0.50210E-01  0.00000E+00 -0.99361E-01  0.48065E-01  0.00000E+00 -0.10469E+00  0.46014E-01  0.00000E+00 -0.10987E+00
          0.44073E-01  0.00000E+00 -0.11491E+00  0.42258E-01  0.00000E+00 -0.11979E+00  0.40584E-01  0.00000E+00 -0.12458E+00  0.39063E-01  0.00000E+00 -0.12919E+00  0.37711E-01  0.00000E+00 -0.13376E+00  0.36535E-01  0.00000E+00 -0.13815E+00
          0.35550E-01  0.00000E+00 -0.14253E+00  0.34749E-01  0.00000E+00 -0.14680E+00  0.34149E-01  0.00000E+00 -0.15094E+00  0.33702E-01  0.00000E+00 -0.15537E+00  0.33452E-01  0.00000E+00 -0.15875E+00  0.33206E-01  0.00000E+00 -0.16514E+00
          0.82878E-01  0.00000E+00 -0.28262E-02  0.84914E-01  0.00000E+00 -0.84094E-02  0.84997E-01  0.00000E+00 -0.15856E-01  0.84097E-01  0.00000E+00 -0.23275E-01  0.82820E-01  0.00000E+00 -0.30572E-01  0.81124E-01  0.00000E+00 -0.37673E-01
          0.79116E-01  0.00000E+00 -0.44764E-01  0.76874E-01  0.00000E+00 -0.51585E-01  0.74465E-01  0.00000E+00 -0.58295E-01  0.71947E-01  0.00000E+00 -0.64811E-01  0.69366E-01  0.00000E+00 -0.71152E-01  0.66757E-01  0.00000E+00 -0.77323E-01
          0.64148E-01  0.00000E+00 -0.83318E-01  0.61566E-01  0.00000E+00 -0.89144E-01  0.59031E-01  0.00000E+00 -0.94804E-01  0.56563E-01  0.00000E+00 -0.10030E+00  0.54179E-01  0.00000E+00 -0.10564E+00  0.51900E-01  0.00000E+00 -0.11083E+00
          0.49740E-01  0.00000E+00 -0.11588E+00  0.47719E-01  0.00000E+00 -0.12077E+00  0.45851E-01  0.00000E+00 -0.12557E+00  0.44155E-01  0.00000E+00 -0.13019E+00  0.42645E-01  0.00000E+00 -0.13478E+00  0.41331E-01  0.00000E+00 -0.13919E+00
          0.40229E-01  0.00000E+00 -0.14360E+00  0.39331E-01  0.00000E+00 -0.14789E+00  0.38660E-01  0.00000E+00 -0.15207E+00  0.38168E-01  0.00000E+00 -0.15655E+00  0.37901E-01  0.00000E+00 -0.15997E+00  0.37627E-01  0.00000E+00 -0.16647E+00
          0.91500E-01  0.00000E+00 -0.28945E-02  0.94038E-01  0.00000E+00 -0.85703E-02  0.94327E-01  0.00000E+00 -0.16111E-01  0.93388E-01  0.00000E+00 -0.23654E-01  0.91989E-01  0.00000E+00 -0.31058E-01  0.90108E-01  0.00000E+00 -0.38270E-01
          0.87880E-01  0.00000E+00 -0.45456E-01  0.85397E-01  0.00000E+00 -0.52363E-01  0.82731E-01  0.00000E+00 -0.59146E-01  0.79951E-01  0.00000E+00 -0.65723E-01  0.77102E-01  0.00000E+00 -0.72117E-01  0.74225E-01  0.00000E+00 -0.78330E-01
          0.71351E-01  0.00000E+00 -0.84360E-01  0.68506E-01  0.00000E+00 -0.90214E-01  0.65714E-01  0.00000E+00 -0.95897E-01  0.62994E-01  0.00000E+00 -0.10141E+00  0.60368E-01  0.00000E+00 -0.10677E+00  0.57856E-01  0.00000E+00 -0.11196E+00
          0.55476E-01  0.00000E+00 -0.11703E+00  0.53249E-01  0.00000E+00 -0.12193E+00  0.51192E-01  0.00000E+00 -0.12674E+00  0.49323E-01  0.00000E+00 -0.13138E+00  0.47661E-01  0.00000E+00 -0.13599E+00  0.46215E-01  0.00000E+00 -0.14042E+00
          0.45005E-01  0.00000E+00 -0.14487E+00  0.44020E-01  0.00000E+00 -0.14920E+00  0.43285E-01  0.00000E+00 -0.15343E+00  0.42740E-01  0.00000E+00 -0.15795E+00  0.42438E-01  0.00000E+00 -0.16142E+00  0.42122E-01  0.00000E+00 -0.16802E+00
          0.10027E+00  0.00000E+00 -0.29618E-02  0.10330E+00  0.00000E+00 -0.87417E-02  0.10379E+00  0.00000E+00 -0.16395E-01  0.10282E+00  0.00000E+00 -0.24076E-01  0.10130E+00  0.00000E+00 -0.31598E-01  0.99228E-01  0.00000E+00 -0.38932E-01
          0.96771E-01  0.00000E+00 -0.46223E-01  0.94036E-01  0.00000E+00 -0.53225E-01  0.91106E-01  0.00000E+00 -0.60090E-01  0.88057E-01  0.00000E+00 -0.66737E-01  0.84938E-01  0.00000E+00 -0.73192E-01  0.81791E-01  0.00000E+00 -0.79456E-01
          0.78651E-01  0.00000E+00 -0.85528E-01  0.75544E-01  0.00000E+00 -0.91419E-01  0.72496E-01  0.00000E+00 -0.97132E-01  0.69528E-01  0.00000E+00 -0.10267E+00  0.66662E-01  0.00000E+00 -0.10805E+00  0.63920E-01  0.00000E+00 -0.11327E+00
          0.61321E-01  0.00000E+00 -0.11835E+00  0.58888E-01  0.00000E+00 -0.12327E+00  0.56640E-01  0.00000E+00 -0.12810E+00  0.54597E-01  0.00000E+00 -0.13276E+00  0.52779E-01  0.00000E+00 -0.13740E+00  0.51197E-01  0.00000E+00 -0.14185E+00
          0.49870E-01  0.00000E+00 -0.14633E+00  0.48788E-01  0.00000E+00 -0.15070E+00  0.47980E-01  0.00000E+00 -0.15497E+00  0.47380E-01  0.00000E+00 -0.15954E+00  0.47052E-01  0.00000E+00 -0.16306E+00  0.46699E-01  0.00000E+00 -0.16977E+00
          0.10922E+00  0.00000E+00 -0.30310E-02  0.11274E+00  0.00000E+00 -0.89200E-02  0.11344E+00  0.00000E+00 -0.16698E-01  0.11245E+00  0.00000E+00 -0.24534E-01  0.11081E+00  0.00000E+00 -0.32188E-01  0.10854E+00  0.00000E+00 -0.39655E-01
          0.10584E+00  0.00000E+00 -0.47065E-01  0.10284E+00  0.00000E+00 -0.54172E-01  0.99640E-01  0.00000E+00 -0.61130E-01  0.96313E-01  0.00000E+00 -0.67856E-01  0.92915E-01  0.00000E+00 -0.74379E-01  0.89493E-01  0.00000E+00 -0.80702E-01
          0.86080E-01  0.00000E+00 -0.86825E-01  0.82706E-01  0.00000E+00 -0.92758E-01  0.79396E-01  0.00000E+00 -0.98507E-01  0.76175E-01  0.00000E+00 -0.10408E+00  0.73065E-01  0.00000E+00 -0.10948E+00  0.70088E-01  0.00000E+00 -0.11472E+00
          0.67267E-01  0.00000E+00 -0.11983E+00  0.64626E-01  0.00000E+00 -0.12477E+00  0.62184E-01  0.00000E+00 -0.12962E+00  0.59967E-01  0.00000E+00 -0.13430E+00  0.57992E-01  0.00000E+00 -0.13897E+00  0.56274E-01  0.00000E+00 -0.14345E+00
          0.54834E-01  0.00000E+00 -0.14797E+00  0.53661E-01  0.00000E+00 -0.15237E+00  0.52784E-01  0.00000E+00 -0.15671E+00  0.52129E-01  0.00000E+00 -0.16134E+00  0.51767E-01  0.00000E+00 -0.16491E+00  0.51369E-01  0.00000E+00 -0.17174E+00
          0.11833E+00  0.00000E+00 -0.30984E-02  0.12237E+00  0.00000E+00 -0.91055E-02  0.12329E+00  0.00000E+00 -0.17023E-01  0.12228E+00  0.00000E+00 -0.25028E-01  0.12051E+00  0.00000E+00 -0.32825E-01  0.11803E+00  0.00000E+00 -0.40437E-01
          0.11508E+00  0.00000E+00 -0.47974E-01  0.11181E+00  0.00000E+00 -0.55194E-01  0.10832E+00  0.00000E+00 -0.62252E-01  0.10471E+00  0.00000E+00 -0.69063E-01  0.10102E+00  0.00000E+00 -0.75662E-01  0.97318E-01  0.00000E+00 -0.82049E-01
          0.93629E-01  0.00000E+00 -0.88228E-01  0.89986E-01  0.00000E+00 -0.94210E-01  0.86415E-01  0.00000E+00 -0.10000E+00  0.82941E-01  0.00000E+00 -0.10561E+00  0.79587E-01  0.00000E+00 -0.11105E+00  0.76378E-01  0.00000E+00 -0.11632E+00
          0.73336E-01  0.00000E+00 -0.12145E+00  0.70487E-01  0.00000E+00 -0.12641E+00  0.67854E-01  0.00000E+00 -0.13130E+00  0.65461E-01  0.00000E+00 -0.13601E+00  0.63329E-01  0.00000E+00 -0.14071E+00  0.61474E-01  0.00000E+00 -0.14522E+00
          0.59917E-01  0.00000E+00 -0.14979E+00  0.58646E-01  0.00000E+00 -0.15423E+00  0.57693E-01  0.00000E+00 -0.15863E+00  0.56977E-01  0.00000E+00 -0.16332E+00  0.56582E-01  0.00000E+00 -0.16694E+00  0.56137E-01  0.00000E+00 -0.17392E+00
          0.12761E+00  0.00000E+00 -0.31663E-02  0.13222E+00  0.00000E+00 -0.92949E-02  0.13337E+00  0.00000E+00 -0.17363E-01  0.13234E+00  0.00000E+00 -0.25552E-01  0.13044E+00  0.00000E+00 -0.33506E-01  0.12774E+00  0.00000E+00 -0.41273E-01
          0.12453E+00  0.00000E+00 -0.48947E-01  0.12097E+00  0.00000E+00 -0.56289E-01  0.11718E+00  0.00000E+00 -0.63454E-01  0.11327E+00  0.00000E+00 -0.70359E-01  0.10929E+00  0.00000E+00 -0.77040E-01  0.10530E+00  0.00000E+00 -0.83498E-01
          0.10133E+00  0.00000E+00 -0.89739E-01  0.97414E-01  0.00000E+00 -0.95775E-01  0.93578E-01  0.00000E+00 -0.10161E+00  0.89847E-01  0.00000E+00 -0.10726E+00  0.86247E-01  0.00000E+00 -0.11274E+00  0.82802E-01  0.00000E+00 -0.11804E+00
          0.79536E-01  0.00000E+00 -0.12321E+00  0.76478E-01  0.00000E+00 -0.12821E+00  0.73650E-01  0.00000E+00 -0.13312E+00  0.71079E-01  0.00000E+00 -0.13786E+00  0.68788E-01  0.00000E+00 -0.14260E+00  0.66794E-01  0.00000E+00 -0.14716E+00
          0.65119E-01  0.00000E+00 -0.15178E+00  0.63751E-01  0.00000E+00 -0.15627E+00  0.62725E-01  0.00000E+00 -0.16073E+00  0.61949E-01  0.00000E+00 -0.16549E+00  0.61517E-01  0.00000E+00 -0.16919E+00  0.61018E-01  0.00000E+00 -0.17631E+00
          0.13708E+00  0.00000E+00 -0.32315E-02  0.14231E+00  0.00000E+00 -0.94882E-02  0.14370E+00  0.00000E+00 -0.17720E-01  0.14266E+00  0.00000E+00 -0.26108E-01  0.14062E+00  0.00000E+00 -0.34231E-01  0.13769E+00  0.00000E+00 -0.42164E-01
          0.13419E+00  0.00000E+00 -0.49985E-01  0.13033E+00  0.00000E+00 -0.57455E-01  0.12623E+00  0.00000E+00 -0.64734E-01  0.12201E+00  0.00000E+00 -0.71737E-01  0.11773E+00  0.00000E+00 -0.78504E-01  0.11344E+00  0.00000E+00 -0.85038E-01
          0.10918E+00  0.00000E+00 -0.91345E-01  0.10499E+00  0.00000E+00 -0.97441E-01  0.10088E+00  0.00000E+00 -0.10333E+00  0.96894E-01  0.00000E+00 -0.10903E+00  0.93047E-01  0.00000E+00 -0.11455E+00  0.89366E-01  0.00000E+00 -0.11989E+00
          0.85878E-01  0.00000E+00 -0.12510E+00  0.82611E-01  0.00000E+00 -0.13013E+00  0.79589E-01  0.00000E+00 -0.13509E+00  0.76842E-01  0.00000E+00 -0.13987E+00  0.74392E-01  0.00000E+00 -0.14466E+00  0.72258E-01  0.00000E+00 -0.14926E+00
          0.70464E-01  0.00000E+00 -0.15394E+00  0.68996E-01  0.00000E+00 -0.15848E+00  0.67890E-01  0.00000E+00 -0.16303E+00  0.67048E-01  0.00000E+00 -0.16786E+00  0.66576E-01  0.00000E+00 -0.17162E+00  0.66019E-01  0.00000E+00 -0.17891E+00
          0.14673E+00  0.00000E+00 -0.32950E-02  0.15266E+00  0.00000E+00 -0.96833E-02  0.15433E+00  0.00000E+00 -0.18088E-01  0.15326E+00  0.00000E+00 -0.26691E-01  0.15108E+00  0.00000E+00 -0.34999E-01  0.14789E+00  0.00000E+00 -0.43106E-01