<?xml version="1.0"?>
<VTKFile type="UnstructuredGrid" version="0.1" byte_order="LittleEndian" compressor="vtkZLibDataCompressor">
<UnstructuredGrid>
  <Piece NumberOfPoints="1800"        NumberOfCells="1"      >
    <Points>
      <DataArray type="Float32" NumberOfComponents="3" format="ascii" >
        0.58289E-01  0.00000E+00  0.24934E-02  0.39565E-01  0.00000E+00  0.30264E-02  0.20405E-01  0.00000E+00  0.36608E-02  0.29288E-01  0.00000E+00  0.85029E-02  0.79487E-02  0.00000E+00  0.60806E-02  0.16237E-01  0.00000E+00  0.12197E-01
        0.60256E-02  0.00000E+00  0.15256E-01  0.16815E-01  0.00000E+00  0.20162E-01  0.71469E-02  0.00000E+00  0.23705E-01  0.14102E-01  0.00000E+00  0.28482E-01  0.67104E-02  0.00000E+00  0.33534E-01  0.14443E-01  0.00000E+00  0.38614E-01
        0.68672E-02  0.00000E+00  0.43097E-01  0.15408E-01  0.00000E+00  0.47493E-01  0.65471E-02  0.00000E+00  0.52837E-01  0.16427E-01  0.00000E+00  0.55611E-01  0.98623E-02  0.00000E+00  0.60840E-01  0.15974E-01  0.00000E+00  0.64539E-01
        0.12741E-01  0.00000E+00  0.69363E-01  0.13715E-01  0.00000E+00  0.74278E-01  0.12711E-01  0.00000E+00  0.78471E-01  0.12905E-01  0.00000E+00  0.83264E-01  0.12837E-01  0.00000E+00  0.87952E-01  0.12120E-01  0.00000E+00  0.92292E-01
        0.10884E-01  0.00000E+00  0.96687E-01  0.10600E-01  0.00000E+00  0.10198E+00  0.11308E-01  0.00000E+00  0.10742E+00  0.10407E-01  0.00000E+00  0.11197E+00  0.77151E-02  0.00000E+00  0.11576E+00  0.79465E-02  0.00000E+00  0.11916E+00
        0.76491E-01  0.00000E+00  0.31478E-02  0.48915E-01  0.00000E+00  0.85715E-02  0.67145E-01  0.00000E+00  0.90271E-02  0.58043E-01  0.00000E+00  0.13793E-01  0.38578E-01  0.00000E+00  0.13709E-01  0.48433E-01  0.00000E+00  0.18872E-01
        0.26985E-01  0.00000E+00  0.17271E-01  0.40354E-01  0.00000E+00  0.23444E-01  0.28564E-01  0.00000E+00  0.25088E-01  0.41609E-01  0.00000E+00  0.30973E-01  0.24885E-01  0.00000E+00  0.31962E-01  0.38026E-01  0.00000E+00  0.37365E-01
        0.25619E-01  0.00000E+00  0.40202E-01  0.39263E-01  0.00000E+00  0.44750E-01  0.26849E-01  0.00000E+00  0.48243E-01  0.40102E-01  0.00000E+00  0.52379E-01  0.27565E-01  0.00000E+00  0.56495E-01  0.40552E-01  0.00000E+00  0.60246E-01
        0.28411E-01  0.00000E+00  0.64746E-01  0.39777E-01  0.00000E+00  0.68495E-01  0.30709E-01  0.00000E+00  0.72443E-01  0.36432E-01  0.00000E+00  0.77960E-01  0.30368E-01  0.00000E+00  0.82379E-01  0.34233E-01  0.00000E+00  0.88086E-01
        0.29178E-01  0.00000E+00  0.92698E-01  0.34201E-01  0.00000E+00  0.97669E-01  0.27856E-01  0.00000E+00  0.10223E+00  0.31094E-01  0.00000E+00  0.10932E+00  0.27856E-01  0.00000E+00  0.11207E+00  0.28564E-01  0.00000E+00  0.11617E+00
        0.96930E-01  0.00000E+00  0.32354E-02  0.85978E-01  0.00000E+00  0.83864E-02  0.10780E+00  0.00000E+00  0.79722E-02  0.95849E-01  0.00000E+00  0.13072E-01  0.76060E-01  0.00000E+00  0.14486E-01  0.86026E-01  0.00000E+00  0.18664E-01
        0.65695E-01  0.00000E+00  0.20668E-01  0.76392E-01  0.00000E+00  0.24303E-01  0.56246E-01  0.00000E+00  0.25302E-01  0.68091E-01  0.00000E+00  0.30009E-01  0.53671E-01  0.00000E+00  0.32783E-01  0.65811E-01  0.00000E+00  0.37383E-01
        0.51281E-01  0.00000E+00  0.40255E-01  0.64592E-01  0.00000E+00  0.44686E-01  0.52439E-01  0.00000E+00  0.48171E-01  0.64971E-01  0.00000E+00  0.52554E-01  0.52312E-01  0.00000E+00  0.56213E-01  0.64978E-01  0.00000E+00  0.60829E-01
        0.52206E-01  0.00000E+00  0.64375E-01  0.63398E-01  0.00000E+00  0.69168E-01  0.52150E-01  0.00000E+00  0.72574E-01  0.60469E-01  0.00000E+00  0.78294E-01  0.50410E-01  0.00000E+00  0.81079E-01  0.57072E-01  0.00000E+00  0.86717E-01
        0.50349E-01  0.00000E+00  0.90439E-01  0.52229E-01  0.00000E+00  0.96242E-01  0.49320E-01  0.00000E+00  0.10189E+00  0.49421E-01  0.00000E+00  0.10851E+00  0.46812E-01  0.00000E+00  0.11180E+00  0.47497E-01  0.00000E+00  0.11606E+00
        0.14060E+00  0.00000E+00  0.31817E-02  0.11846E+00  0.00000E+00  0.53394E-02  0.13045E+00  0.00000E+00  0.81969E-02  0.12232E+00  0.00000E+00  0.14432E-01  0.10816E+00  0.00000E+00  0.16840E-01  0.11659E+00  0.00000E+00  0.21882E-01
        0.98156E-01  0.00000E+00  0.22029E-01  0.10763E+00  0.00000E+00  0.27365E-01  0.88930E-01  0.00000E+00  0.27634E-01  0.99005E-01  0.00000E+00  0.32706E-01  0.80890E-01  0.00000E+00  0.33053E-01  0.92781E-01  0.00000E+00  0.38683E-01
        0.78658E-01  0.00000E+00  0.40646E-01  0.91542E-01  0.00000E+00  0.45827E-01  0.77611E-01  0.00000E+00  0.47899E-01  0.90293E-01  0.00000E+00  0.53239E-01  0.77015E-01  0.00000E+00  0.55706E-01  0.88902E-01  0.00000E+00  0.61409E-01
        0.76475E-01  0.00000E+00  0.63873E-01  0.86768E-01  0.00000E+00  0.70095E-01  0.74667E-01  0.00000E+00  0.72197E-01  0.83841E-01  0.00000E+00  0.78431E-01  0.73086E-01  0.00000E+00  0.80843E-01  0.78968E-01  0.00000E+00  0.86728E-01
        0.73931E-01  0.00000E+00  0.91175E-01  0.70060E-01  0.00000E+00  0.95589E-01  0.69832E-01  0.00000E+00  0.10145E+00  0.67799E-01  0.00000E+00  0.10807E+00  0.68673E-01  0.00000E+00  0.11130E+00  0.67768E-01  0.00000E+00  0.11536E+00
        0.17638E+00  0.00000E+00  0.32400E-02  0.15794E+00  0.00000E+00  0.53240E-02  0.14738E+00  0.00000E+00  0.10515E-01  0.15891E+00  0.00000E+00  0.14922E-01  0.13795E+00  0.00000E+00  0.15683E-01  0.15007E+00  0.00000E+00  0.20336E-01
        0.12980E+00  0.00000E+00  0.21676E-01  0.14097E+00  0.00000E+00  0.24971E-01  0.12269E+00  0.00000E+00  0.29051E-01  0.13388E+00  0.00000E+00  0.31934E-01  0.11405E+00  0.00000E+00  0.35063E-01  0.12612E+00  0.00000E+00  0.38575E-01
        0.10728E+00  0.00000E+00  0.40557E-01  0.12074E+00  0.00000E+00  0.45060E-01  0.10526E+00  0.00000E+00  0.47513E-01  0.11748E+00  0.00000E+00  0.52162E-01  0.10274E+00  0.00000E+00  0.54505E-01  0.11346E+00  0.00000E+00  0.59903E-01
        0.10057E+00  0.00000E+00  0.62466E-01  0.10974E+00  0.00000E+00  0.68970E-01  0.97997E-01  0.00000E+00  0.71143E-01  0.10624E+00  0.00000E+00  0.77682E-01  0.96840E-01  0.00000E+00  0.80266E-01  0.99455E-01  0.00000E+00  0.87131E-01
        0.94046E-01  0.00000E+00  0.90620E-01  0.92135E-01  0.00000E+00  0.96240E-01  0.89265E-01  0.00000E+00  0.10157E+00  0.89168E-01  0.00000E+00  0.10803E+00  0.87709E-01  0.00000E+00  0.11103E+00  0.88066E-01  0.00000E+00  0.11519E+00
        0.19846E+00  0.00000E+00  0.31991E-02  0.18763E+00  0.00000E+00  0.76009E-02  0.16891E+00  0.00000E+00  0.10006E-01  0.20255E+00  0.00000E+00  0.12127E-01  0.17910E+00  0.00000E+00  0.14377E-01  0.19218E+00  0.00000E+00  0.16256E-01
        0.16844E+00  0.00000E+00  0.19984E-01  0.17456E+00  0.00000E+00  0.26581E-01  0.15778E+00  0.00000E+00  0.26023E-01  0.16475E+00  0.00000E+00  0.31261E-01  0.14753E+00  0.00000E+00  0.32016E-01  0.15426E+00  0.00000E+00  0.37929E-01
        0.13970E+00  0.00000E+00  0.39841E-01  0.14802E+00  0.00000E+00  0.45682E-01  0.13440E+00  0.00000E+00  0.46880E-01  0.14545E+00  0.00000E+00  0.53640E-01  0.13010E+00  0.00000E+00  0.53643E-01  0.13856E+00  0.00000E+00  0.59963E-01
        0.12495E+00  0.00000E+00  0.61134E-01  0.13234E+00  0.00000E+00  0.68520E-01  0.12008E+00  0.00000E+00  0.70057E-01  0.12819E+00  0.00000E+00  0.76625E-01  0.11943E+00  0.00000E+00  0.79221E-01  0.11857E+00  0.00000E+00  0.86267E-01
        0.11728E+00  0.00000E+00  0.90953E-01  0.11195E+00  0.00000E+00  0.94101E-01  0.11048E+00  0.00000E+00  0.10091E+00  0.10982E+00  0.00000E+00  0.10720E+00  0.10962E+00  0.00000E+00  0.10990E+00  0.10917E+00  0.00000E+00  0.11412E+00
        0.22742E+00  0.00000E+00  0.30848E-02  0.24439E+00  0.00000E+00  0.61617E-02  0.21257E+00  0.00000E+00  0.63293E-02  0.23534E+00  0.00000E+00  0.10670E-01  0.22064E+00  0.00000E+00  0.12074E-01  0.22858E+00  0.00000E+00  0.17572E-01
        0.21142E+00  0.00000E+00  0.18051E-01  0.20053E+00  0.00000E+00  0.21868E-01  0.18463E+00  0.00000E+00  0.21930E-01  0.18679E+00  0.00000E+00  0.29993E-01  0.18033E+00  0.00000E+00  0.36701E-01  0.17059E+00  0.00000E+00  0.38484E-01
        0.17941E+00  0.00000E+00  0.45808E-01  0.16270E+00  0.00000E+00  0.43442E-01  0.17138E+00  0.00000E+00  0.51858E-01  0.15901E+00  0.00000E+00  0.50619E-01  0.15975E+00  0.00000E+00  0.57753E-01  0.16012E+00  0.00000E+00  0.65214E-01
        0.14800E+00  0.00000E+00  0.63555E-01  0.15511E+00  0.00000E+00  0.72506E-01  0.14182E+00  0.00000E+00  0.71556E-01  0.15011E+00  0.00000E+00  0.78986E-01  0.14220E+00  0.00000E+00  0.80977E-01  0.13662E+00  0.00000E+00  0.86259E-01
        0.13847E+00  0.00000E+00  0.91530E-01  0.13497E+00  0.00000E+00  0.95570E-01  0.13071E+00  0.00000E+00  0.10126E+00  0.13225E+00  0.00000E+00  0.10743E+00  0.13068E+00  0.00000E+00  0.11019E+00  0.13079E+00  0.00000E+00  0.11431E+00
        0.25755E+00  0.00000E+00  0.32641E-02  0.26990E+00  0.00000E+00  0.71817E-02  0.25671E+00  0.00000E+00  0.12345E-01  0.28101E+00  0.00000E+00  0.12175E-01  0.26658E+00  0.00000E+00  0.15623E-01  0.24746E+00  0.00000E+00  0.16111E-01
        0.24009E+00  0.00000E+00  0.21365E-01  0.22203E+00  0.00000E+00  0.24415E-01  0.21212E+00  0.00000E+00  0.27102E-01  0.19884E+00  0.00000E+00  0.29755E-01  0.20775E+00  0.00000E+00  0.35382E-01  0.19381E+00  0.00000E+00  0.37492E-01
        0.20499E+00  0.00000E+00  0.43699E-01  0.19082E+00  0.00000E+00  0.45298E-01  0.20022E+00  0.00000E+00  0.51093E-01  0.18945E+00  0.00000E+00  0.53772E-01  0.17916E+00  0.00000E+00  0.56812E-01  0.18601E+00  0.00000E+00  0.63800E-01
        0.17215E+00  0.00000E+00  0.63723E-01  0.17996E+00  0.00000E+00  0.71096E-01  0.16765E+00  0.00000E+00  0.72579E-01  0.17522E+00  0.00000E+00  0.78991E-01  0.16842E+00  0.00000E+00  0.82806E-01  0.15955E+00  0.00000E+00  0.84901E-01
        0.16368E+00  0.00000E+00  0.90737E-01  0.15841E+00  0.00000E+00  0.94510E-01  0.15371E+00  0.00000E+00  0.99810E-01  0.15621E+00  0.00000E+00  0.10544E+00  0.15378E+00  0.00000E+00  0.10852E+00  0.15359E+00  0.00000E+00  0.11245E+00
[...]
<PointData>
      <DataArray type="Float32" Name="Velocity vectors"  NumberOfComponents="3"  format="ascii" >
          0.99847E-01  0.00000E+00  0.41411E-03  0.75158E-01  0.00000E+00 -0.11660E-02  0.34742E-01  0.00000E+00 -0.22003E-02  0.62677E-01  0.00000E+00 -0.17059E-01  0.15806E-01  0.00000E+00 -0.15840E-01  0.35533E-01  0.00000E+00 -0.16529E-01
         -0.51580E-02  0.00000E+00 -0.34697E-01  0.30885E-01  0.00000E+00 -0.29291E-01 -0.11353E-02  0.00000E+00 -0.45894E-01  0.39355E-01  0.00000E+00 -0.61237E-01 -0.63047E-04  0.00000E+00 -0.71844E-01  0.31253E-01  0.00000E+00 -0.76594E-01
         -0.15834E-02  0.00000E+00 -0.91747E-01  0.29837E-01  0.00000E+00 -0.98378E-01 -0.61827E-02  0.00000E+00 -0.10723E+00  0.29965E-01  0.00000E+00 -0.11847E+00 -0.22025E-01  0.00000E+00 -0.11600E+00  0.35772E-01  0.00000E+00 -0.13928E+00
         -0.14661E-01  0.00000E+00 -0.14256E+00  0.13340E-01  0.00000E+00 -0.13345E+00 -0.55592E-02  0.00000E+00 -0.13508E+00  0.57906E-02  0.00000E+00 -0.13320E+00  0.80006E-02  0.00000E+00 -0.13443E+00  0.40900E-02  0.00000E+00 -0.13568E+00
         -0.19373E-02  0.00000E+00 -0.13455E+00  0.46596E-02  0.00000E+00 -0.13121E+00  0.88296E-02  0.00000E+00 -0.13254E+00  0.68905E-02  0.00000E+00 -0.13977E+00  0.34839E-02  0.00000E+00 -0.14165E+00  0.33058E-02  0.00000E+00 -0.14229E+00
          0.12664E+00  0.00000E+00 -0.10339E-02  0.86467E-01  0.00000E+00 -0.94247E-02  0.11330E+00  0.00000E+00 -0.11062E-01  0.96465E-01  0.00000E+00 -0.15637E-01  0.73977E-01  0.00000E+00 -0.13786E-01  0.86945E-01  0.00000E+00 -0.16291E-01
          0.36679E-01  0.00000E+00 -0.30325E-01  0.58128E-01  0.00000E+00 -0.36719E-01  0.71245E-01  0.00000E+00 -0.42497E-01  0.81350E-01  0.00000E+00 -0.34927E-01  0.33780E-01  0.00000E+00 -0.60061E-01  0.45721E-01  0.00000E+00 -0.51120E-01
          0.42756E-01  0.00000E+00 -0.63026E-01  0.57817E-01  0.00000E+00 -0.57347E-01  0.45728E-01  0.00000E+00 -0.72033E-01  0.53328E-01  0.00000E+00 -0.60409E-01  0.36661E-01  0.00000E+00 -0.79616E-01  0.45902E-01  0.00000E+00 -0.70523E-01
          0.12949E-01  0.00000E+00 -0.81521E-01  0.45393E-01  0.00000E+00 -0.83254E-01 -0.64780E-02  0.00000E+00 -0.96508E-01  0.48362E-01  0.00000E+00 -0.10310E+00 -0.23061E-01  0.00000E+00 -0.12305E+00  0.35946E-01  0.00000E+00 -0.12041E+00
         -0.91964E-02  0.00000E+00 -0.13453E+00  0.32113E-01  0.00000E+00 -0.13442E+00  0.35397E-02  0.00000E+00 -0.14845E+00  0.24886E-01  0.00000E+00 -0.14730E+00  0.12501E-01  0.00000E+00 -0.15092E+00  0.14492E-01  0.00000E+00 -0.15042E+00
          0.14451E+00  0.00000E+00  0.37634E-03  0.13893E+00  0.00000E+00 -0.63040E-02  0.15243E+00  0.00000E+00 -0.63271E-02  0.14513E+00  0.00000E+00 -0.59255E-02  0.12443E+00  0.00000E+00 -0.16598E-01  0.13261E+00  0.00000E+00 -0.17056E-01
          0.11405E+00  0.00000E+00 -0.25919E-01  0.11805E+00  0.00000E+00 -0.23345E-01  0.96709E-01  0.00000E+00 -0.36539E-01  0.98493E-01  0.00000E+00 -0.33360E-01  0.83294E-01  0.00000E+00 -0.42720E-01  0.80423E-01  0.00000E+00 -0.41415E-01
          0.60997E-01  0.00000E+00 -0.50762E-01  0.72202E-01  0.00000E+00 -0.45983E-01  0.70829E-01  0.00000E+00 -0.56807E-01  0.71686E-01  0.00000E+00 -0.50241E-01  0.61455E-01  0.00000E+00 -0.63283E-01  0.67168E-01  0.00000E+00 -0.57261E-01
          0.47745E-01  0.00000E+00 -0.70054E-01  0.66915E-01  0.00000E+00 -0.64099E-01  0.32358E-01  0.00000E+00 -0.78153E-01  0.72190E-01  0.00000E+00 -0.76009E-01  0.14665E-01  0.00000E+00 -0.96672E-01  0.70651E-01  0.00000E+00 -0.99866E-01
          0.15547E-01  0.00000E+00 -0.12385E+00  0.49628E-01  0.00000E+00 -0.11599E+00  0.16333E-01  0.00000E+00 -0.12325E+00  0.25300E-01  0.00000E+00 -0.12473E+00  0.11471E-01  0.00000E+00 -0.12721E+00  0.18826E-01  0.00000E+00 -0.12753E+00
          0.18167E+00  0.00000E+00 -0.43910E-03  0.15505E+00  0.00000E+00 -0.10110E-02  0.16531E+00  0.00000E+00 -0.95376E-02  0.16076E+00  0.00000E+00 -0.93916E-02  0.14642E+00  0.00000E+00 -0.68837E-02  0.15462E+00  0.00000E+00 -0.13987E-01
          0.13882E+00  0.00000E+00 -0.94575E-02  0.14831E+00  0.00000E+00 -0.17848E-01  0.12761E+00  0.00000E+00 -0.19702E-01  0.13486E+00  0.00000E+00 -0.20807E-01  0.10631E+00  0.00000E+00 -0.35945E-01  0.10130E+00  0.00000E+00 -0.37146E-01
          0.87082E-01  0.00000E+00 -0.41224E-01  0.98075E-01  0.00000E+00 -0.40377E-01  0.84249E-01  0.00000E+00 -0.48489E-01  0.88325E-01  0.00000E+00 -0.51316E-01  0.81635E-01  0.00000E+00 -0.56158E-01  0.84413E-01  0.00000E+00 -0.53059E-01
          0.75348E-01  0.00000E+00 -0.60967E-01  0.85982E-01  0.00000E+00 -0.59210E-01  0.62722E-01  0.00000E+00 -0.74032E-01  0.93422E-01  0.00000E+00 -0.66470E-01  0.42995E-01  0.00000E+00 -0.80832E-01  0.96562E-01  0.00000E+00 -0.88899E-01
          0.68747E-01  0.00000E+00 -0.99149E-01  0.27337E-01  0.00000E+00 -0.10952E+00  0.33618E-01  0.00000E+00 -0.10803E+00  0.21109E-01  0.00000E+00 -0.11200E+00  0.27645E-01  0.00000E+00 -0.11285E+00  0.24233E-01  0.00000E+00 -0.11440E+00
          0.23792E+00  0.00000E+00 -0.19612E-03  0.20833E+00  0.00000E+00 -0.31479E-02  0.20690E+00  0.00000E+00 -0.13695E-01  0.21431E+00  0.00000E+00 -0.59776E-02  0.18237E+00  0.00000E+00 -0.28745E-01  0.19142E+00  0.00000E+00 -0.21788E-01
          0.17175E+00  0.00000E+00 -0.24177E-01  0.18073E+00  0.00000E+00 -0.35772E-01  0.16484E+00  0.00000E+00 -0.28431E-01  0.17640E+00  0.00000E+00 -0.41234E-01  0.15942E+00  0.00000E+00 -0.26473E-01  0.17197E+00  0.00000E+00 -0.38350E-01
          0.12449E+00  0.00000E+00 -0.44786E-01  0.13608E+00  0.00000E+00 -0.50114E-01  0.11408E+00  0.00000E+00 -0.46529E-01  0.11949E+00  0.00000E+00 -0.60256E-01  0.10051E+00  0.00000E+00 -0.58016E-01  0.10779E+00  0.00000E+00 -0.67190E-01
          0.96828E-01  0.00000E+00 -0.62804E-01  0.10982E+00  0.00000E+00 -0.69243E-01  0.92377E-01  0.00000E+00 -0.79293E-01  0.12439E+00  0.00000E+00 -0.74376E-01  0.83248E-01  0.00000E+00 -0.89531E-01  0.11379E+00  0.00000E+00 -0.86979E-01
          0.71645E-01  0.00000E+00 -0.10529E+00  0.59835E-01  0.00000E+00 -0.97457E-01  0.36542E-01  0.00000E+00 -0.10837E+00  0.41098E-01  0.00000E+00 -0.10866E+00  0.33695E-01  0.00000E+00 -0.11301E+00  0.36540E-01  0.00000E+00 -0.11304E+00
          0.24921E+00  0.00000E+00  0.28641E-03  0.24573E+00  0.00000E+00 -0.43986E-02  0.21450E+00  0.00000E+00 -0.14759E-01  0.26972E+00  0.00000E+00 -0.10534E-01  0.22751E+00  0.00000E+00 -0.15590E-01  0.25511E+00  0.00000E+00 -0.15971E-01
          0.22494E+00  0.00000E+00 -0.16439E-01  0.24490E+00  0.00000E+00 -0.26709E-01  0.20742E+00  0.00000E+00 -0.29319E-01  0.22553E+00  0.00000E+00 -0.41553E-01  0.19048E+00  0.00000E+00 -0.43237E-01  0.20892E+00  0.00000E+00 -0.54254E-01
          0.18353E+00  0.00000E+00 -0.49090E-01  0.18394E+00  0.00000E+00 -0.63956E-01  0.16364E+00  0.00000E+00 -0.58269E-01  0.17180E+00  0.00000E+00 -0.66680E-01  0.14002E+00  0.00000E+00 -0.72632E-01  0.14617E+00  0.00000E+00 -0.81873E-01
          0.12917E+00  0.00000E+00 -0.82435E-01  0.13617E+00  0.00000E+00 -0.90623E-01  0.11850E+00  0.00000E+00 -0.96554E-01  0.13962E+00  0.00000E+00 -0.95694E-01  0.11192E+00  0.00000E+00 -0.10440E+00  0.11580E+00  0.00000E+00 -0.95920E-01
          0.10685E+00  0.00000E+00 -0.10369E+00  0.68938E-01  0.00000E+00 -0.12334E+00  0.62390E-01  0.00000E+00 -0.11097E+00  0.57421E-01  0.00000E+00 -0.11741E+00  0.56291E-01  0.00000E+00 -0.12093E+00  0.54120E-01  0.00000E+00 -0.12064E+00
          0.30456E+00  0.00000E+00 -0.61119E-03  0.33389E+00  0.00000E+00 -0.52647E-02  0.27221E+00  0.00000E+00 -0.79153E-02  0.32232E+00  0.00000E+00 -0.15007E-01  0.29606E+00  0.00000E+00 -0.19845E-01  0.30766E+00  0.00000E+00 -0.22753E-01
          0.28485E+00  0.00000E+00 -0.26598E-01  0.26616E+00  0.00000E+00 -0.26360E-01  0.24258E+00  0.00000E+00 -0.29448E-01  0.25828E+00  0.00000E+00 -0.32177E-01  0.23818E+00  0.00000E+00 -0.43321E-01  0.23450E+00  0.00000E+00 -0.40387E-01
          0.22224E+00  0.00000E+00 -0.40297E-01  0.21259E+00  0.00000E+00 -0.63545E-01  0.18638E+00  0.00000E+00 -0.59951E-01  0.17346E+00  0.00000E+00 -0.73480E-01  0.18012E+00  0.00000E+00 -0.71132E-01  0.18061E+00  0.00000E+00 -0.71168E-01
          0.16701E+00  0.00000E+00 -0.88840E-01  0.15926E+00  0.00000E+00 -0.90925E-01  0.14322E+00  0.00000E+00 -0.10670E+00  0.14562E+00  0.00000E+00 -0.91038E-01  0.14322E+00  0.00000E+00 -0.10849E+00  0.10363E+00  0.00000E+00 -0.12671E+00
          0.12785E+00  0.00000E+00 -0.11292E+00  0.11230E+00  0.00000E+00 -0.12183E+00  0.68542E-01  0.00000E+00 -0.13689E+00  0.84445E-01  0.00000E+00 -0.13828E+00  0.68378E-01  0.00000E+00 -0.13870E+00  0.69698E-01  0.00000E+00 -0.13980E+00
          0.34745E+00  0.00000E+00 -0.81020E-03  0.35543E+00  0.00000E+00 -0.58692E-02  0.33748E+00  0.00000E+00 -0.41572E-02  0.35838E+00  0.00000E+00 -0.55868E-02  0.34277E+00  0.00000E+00 -0.14241E-01  0.32618E+00  0.00000E+00 -0.11905E-01
          0.31027E+00  0.00000E+00 -0.21049E-01  0.28095E+00  0.00000E+00 -0.33967E-01  0.27304E+00  0.00000E+00 -0.32021E-01  0.25585E+00  0.00000E+00 -0.31013E-01  0.26389E+00  0.00000E+00 -0.43391E-01  0.25210E+00  0.00000E+00 -0.35584E-01
          0.25749E+00  0.00000E+00 -0.43125E-01  0.22665E+00  0.00000E+00 -0.46733E-01  0.23166E+00  0.00000E+00 -0.57980E-01  0.22463E+00  0.00000E+00 -0.49637E-01  0.19830E+00  0.00000E+00 -0.65466E-01  0.21350E+00  0.00000E+00 -0.69276E-01
          0.18562E+00  0.00000E+00 -0.79778E-01  0.19302E+00  0.00000E+00 -0.86368E-01  0.17809E+00  0.00000E+00 -0.89013E-01  0.18402E+00  0.00000E+00 -0.89153E-01  0.17212E+00  0.00000E+00 -0.87452E-01  0.13936E+00  0.00000E+00 -0.12386E+00
          0.17153E+00  0.00000E+00 -0.11495E+00  0.13401E+00  0.00000E+00 -0.12594E+00  0.90199E-01  0.00000E+00 -0.14154E+00  0.11005E+00  0.00000E+00 -0.14990E+00  0.83122E-01  0.00000E+00 -0.14900E+00  0.85511E-01  0.00000E+00 -0.15011E+00
          0.36343E+00  0.00000E+00 -0.16455E-03  0.37210E+00  0.00000E+00 -0.59134E-02  0.37457E+00  0.00000E+00 -0.14618E-01  0.39558E+00  0.00000E+00 -0.18284E-01  0.36884E+00  0.00000E+00 -0.12166E-01  0.36514E+00  0.00000E+00 -0.10268E-01
          0.35387E+00  0.00000E+00 -0.22283E-01  0.33368E+00  0.00000E+00 -0.17723E-01  0.31405E+00  0.00000E+00 -0.29168E-01  0.28782E+00  0.00000E+00 -0.35320E-01  0.30137E+00  0.00000E+00 -0.43875E-01  0.28418E+00  0.00000E+00 -0.41784E-01
          0.28693E+00  0.00000E+00 -0.51155E-01  0.25887E+00  0.00000E+00 -0.56844E-01  0.27632E+00  0.00000E+00 -0.64925E-01  0.25298E+00  0.00000E+00 -0.64360E-01  0.25397E+00  0.00000E+00 -0.74289E-01  0.24476E+00  0.00000E+00 -0.72924E-01
          0.22723E+00  0.00000E+00 -0.76942E-01  0.22856E+00  0.00000E+00 -0.87207E-01  0.20767E+00  0.00000E+00 -0.89103E-01  0.21641E+00  0.00000E+00 -0.90672E-01  0.20478E+00  0.00000E+00 -0.91161E-01  0.17696E+00  0.00000E+00 -0.11909E+00
          0.20030E+00  0.00000E+00 -0.10661E+00  0.16707E+00  0.00000E+00 -0.11741E+00  0.11276E+00  0.00000E+00 -0.14283E+00  0.13131E+00  0.00000E+00 -0.14405E+00  0.11235E+00  0.00000E+00 -0.14778E+00  0.11525E+00  0.00000E+00 -0.14744E+00
          0.40323E+00  0.00000E+00 -0.59046E-03  0.41632E+00  0.00000E+00 -0.47723E-02  0.46231E+00  0.00000E+00 -0.12921E-01  0.42311E+00  0.00000E+00 -0.10843E-01  0.43998E+00  0.00000E+00 -0.23247E-01  0.40744E+00  0.00000E+00 -0.19985E-01
          0.38660E+00  0.00000E+00 -0.25959E-01  0.37361E+00  0.00000E+00 -0.16839E-01  0.35244E+00  0.00000E+00 -0.19857E-01  0.34380E+00  0.00000E+00 -0.28580E-01  0.33725E+00  0.00000E+00 -0.31064E-01  0.31239E+00  0.00000E+00 -0.48679E-01
          0.30580E+00  0.00000E+00 -0.45679E-01  0.30245E+00  0.00000E+00 -0.50985E-01  0.28315E+00  0.00000E+00 -0.61855E-01  0.27982E+00  0.00000E+00 -0.61551E-01  0.26174E+00  0.00000E+00 -0.66291E-01  0.27412E+00  0.00000E+00 -0.73727E-01
          0.25866E+00  0.00000E+00 -0.73606E-01  0.26619E+00  0.00000E+00 -0.84147E-01  0.23864E+00  0.00000E+00 -0.87139E-01  0.24578E+00  0.00000E+00 -0.88302E-01  0.23337E+00  0.00000E+00 -0.90966E-01  0.20571E+00  0.00000E+00 -0.11548E+00
          0.23231E+00  0.00000E+00 -0.10368E+00  0.19670E+00  0.00000E+00 -0.11585E+00  0.14277E+00  0.00000E+00 -0.14813E+00  0.16064E+00  0.00000E+00 -0.14428E+00  0.14596E+00  0.00000E+00 -0.14831E+00  0.14785E+00  0.00000E+00 -0.14886E+00
          0.43401E+00  0.00000E+00  0.48438E-03  0.49114E+00  0.00000E+00 -0.10586E-02  0.48187E+00  0.00000E+00 -0.50955E-02  0.45444E+00  0.00000E+00 -0.14998E-01  0.46235E+00  0.00000E+00 -0.16346E-01  0.43982E+00  0.00000E+00 -0.22162E-01
          0.42954E+00  0.00000E+00 -0.23165E-01  0.42083E+00  0.00000E+00 -0.30697E-01  0.39574E+00  0.00000E+00 -0.30913E-01  0.37947E+00  0.00000E+00 -0.32710E-01  0.36385E+00  0.00000E+00 -0.25740E-01  0.34939E+00  0.00000E+00 -0.30618E-01
          0.33181E+00  0.00000E+00 -0.35119E-01  0.33194E+00  0.00000E+00 -0.40736E-01  0.31158E+00  0.00000E+00 -0.47903E-01  0.31846E+00  0.00000E+00 -0.54669E-01  0.29776E+00  0.00000E+00 -0.59770E-01  0.30935E+00  0.00000E+00 -0.68369E-01
          0.28814E+00  0.00000E+00 -0.72748E-01  0.29368E+00  0.00000E+00 -0.83042E-01  0.27229E+00  0.00000E+00 -0.88277E-01  0.27757E+00  0.00000E+00 -0.88389E-01  0.26403E+00  0.00000E+00 -0.92193E-01  0.23652E+00  0.00000E+00 -0.11332E+00
          0.26154E+00  0.00000E+00 -0.10067E+00  0.22705E+00  0.00000E+00 -0.11418E+00  0.17617E+00  0.00000E+00 -0.14842E+00  0.19292E+00  0.00000E+00 -0.13989E+00  0.18680E+00  0.00000E+00 -0.14423E+00  0.18771E+00  0.00000E+00 -0.14503E+00
          0.50167E+00  0.00000E+00 -0.51206E-04  0.52389E+00  0.00000E+00 -0.34528E-02  0.52601E+00  0.00000E+00 -0.86583E-02  0.50329E+00  0.00000E+00 -0.15999E-01  0.50691E+00  0.00000E+00 -0.14182E-01  0.48792E+00  0.00000E+00 -0.21591E-01
          0.47901E+00  0.00000E+00 -0.24693E-01  0.45497E+00  0.00000E+00 -0.29955E-01  0.44410E+00  0.00000E+00 -0.33913E-01  0.42504E+00  0.00000E+00 -0.36652E-01  0.41124E+00  0.00000E+00 -0.41417E-01  0.39049E+00  0.00000E+00 -0.49092E-01
          0.37869E+00  0.00000E+00 -0.42002E-01  0.38188E+00  0.00000E+00 -0.46787E-01  0.36177E+00  0.00000E+00 -0.47039E-01  0.36637E+00  0.00000E+00 -0.58145E-01  0.34221E+00  0.00000E+00 -0.62631E-01  0.34494E+00  0.00000E+00 -0.71625E-01
          0.32701E+00  0.00000E+00 -0.72531E-01  0.32989E+00  0.00000E+00 -0.82038E-01  0.30688E+00  0.00000E+00 -0.84592E-01  0.31271E+00  0.00000E+00 -0.89493E-01  0.29551E+00  0.00000E+00 -0.93083E-01  0.27203E+00  0.00000E+00 -0.11263E+00
          0.29042E+00  0.00000E+00 -0.98503E-01  0.26057E+00  0.00000E+00 -0.11303E+00  0.21531E+00  0.00000E+00 -0.14823E+00  0.23126E+00  0.00000E+00 -0.13508E+00  0.23101E+00  0.00000E+00 -0.14064E+00  0.22904E+00  0.00000E+00 -0.14191E+00
          0.54239E+00  0.00000E+00 -0.71271E-03  0.56615E+00  0.00000E+00 -0.38276E-02  0.57054E+00  0.00000E+00 -0.86847E-02  0.54735E+00  0.00000E+00 -0.15061E-01  0.55100E+00  0.00000E+00 -0.15147E-01  0.53191E+00  0.00000E+00 -0.21854E-01
          0.52114E+00  0.00000E+00 -0.23964E-01  0.50034E+00  0.00000E+00 -0.28645E-01  0.48929E+00  0.00000E+00 -0.30954E-01  0.47382E+00  0.00000E+00 -0.40849E-01  0.46196E+00  0.00000E+00 -0.43616E-01  0.43965E+00  0.00000E+00 -0.49405E-01
          0.42144E+00  0.00000E+00 -0.46760E-01  0.40307E+00  0.00000E+00 -0.56942E-01  0.39965E+00  0.00000E+00 -0.60601E-01  0.38602E+00  0.00000E+00 -0.63412E-01  0.40861E+00  0.00000E+00 -0.78390E-01  0.38080E+00  0.00000E+00 -0.78982E-01
          0.36133E+00  0.00000E+00 -0.77566E-01  0.36610E+00  0.00000E+00 -0.89272E-01  0.33922E+00  0.00000E+00 -0.91149E-01  0.34748E+00  0.00000E+00 -0.96846E-01  0.33107E+00  0.00000E+00 -0.98587E-01  0.30728E+00  0.00000E+00 -0.11507E+00
          0.32553E+00  0.00000E+00 -0.10294E+00  0.29659E+00  0.00000E+00 -0.11649E+00  0.25692E+00  0.00000E+00 -0.15165E+00  0.27129E+00  0.00000E+00 -0.13730E+00  0.27299E+00  0.00000E+00 -0.14273E+00  0.26958E+00  0.00000E+00 -0.14423E+00
          0.58431E+00  0.00000E+00 -0.81808E-03  0.60693E+00  0.00000E+00 -0.38331E-02  0.61313E+00  0.00000E+00 -0.88106E-02  0.59130E+00  0.00000E+00 -0.13780E-01  0.59577E+00  0.00000E+00 -0.14384E-01  0.57632E+00  0.00000E+00 -0.21657E-01
          0.56682E+00  0.00000E+00 -0.24441E-01  0.54583E+00  0.00000E+00 -0.29628E-01  0.53308E+00  0.00000E+00 -0.32067E-01  0.51724E+00  0.00000E+00 -0.39682E-01  0.50540E+00  0.00000E+00 -0.44580E-01  0.48397E+00  0.00000E+00 -0.44611E-01
          0.47080E+00  0.00000E+00 -0.51158E-01  0.44899E+00  0.00000E+00 -0.59840E-01  0.43286E+00  0.00000E+00 -0.55358E-01  0.41801E+00  0.00000E+00 -0.64839E-01  0.43431E+00  0.00000E+00 -0.73264E-01  0.40983E+00  0.00000E+00 -0.80629E-01
          0.39267E+00  0.00000E+00 -0.80171E-01  0.39897E+00  0.00000E+00 -0.92268E-01  0.37091E+00  0.00000E+00 -0.10031E+00  0.37755E+00  0.00000E+00 -0.10115E+00  0.36330E+00  0.00000E+00 -0.10609E+00  0.33929E+00  0.00000E+00 -0.12036E+00
          0.35820E+00  0.00000E+00 -0.10994E+00  0.33430E+00  0.00000E+00 -0.12279E+00  0.29703E+00  0.00000E+00 -0.15633E+00  0.31312E+00  0.00000E+00 -0.14232E+00  0.31358E+00  0.00000E+00 -0.14737E+00  0.30888E+00  0.00000E+00 -0.14922E+00
          0.62479E+00  0.00000E+00 -0.74267E-03  0.64557E+00  0.00000E+00 -0.35942E-02  0.65190E+00  0.00000E+00 -0.97436E-02  0.63312E+00  0.00000E+00 -0.11866E-01  0.63870E+00  0.00000E+00 -0.11832E-01  0.62022E+00  0.00000E+00 -0.20273E-01
          0.61249E+00  0.00000E+00 -0.23222E-01  0.59183E+00  0.00000E+00 -0.28775E-01  0.57957E+00  0.00000E+00 -0.32038E-01  0.56188E+00  0.00000E+00 -0.40138E-01  0.55070E+00  0.00000E+00 -0.44301E-01  0.53290E+00  0.00000E+00 -0.47211E-01
          0.51805E+00  0.00000E+00 -0.51931E-01  0.50132E+00  0.00000E+00 -0.56386E-01  0.48041E+00  0.00000E+00 -0.60992E-01  0.46551E+00  0.00000E+00 -0.58957E-01  0.43885E+00  0.00000E+00 -0.75904E-01  0.43943E+00  0.00000E+00 -0.76027E-01
          0.42396E+00  0.00000E+00 -0.76585E-01  0.43194E+00  0.00000E+00 -0.84893E-01  0.40220E+00  0.00000E+00 -0.95933E-01  0.41175E+00  0.00000E+00 -0.98524E-01  0.39689E+00  0.00000E+00 -0.10174E+00  0.37246E+00  0.00000E+00 -0.11837E+00
          0.38706E+00  0.00000E+00 -0.10855E+00  0.37421E+00  0.00000E+00 -0.12436E+00  0.33464E+00  0.00000E+00 -0.15856E+00  0.35375E+00  0.00000E+00 -0.14547E+00  0.34967E+00  0.00000E+00 -0.14981E+00  0.34469E+00  0.00000E+00 -0.15202E+00
          0.66393E+00  0.00000E+00 -0.55784E-03  0.68291E+00  0.00000E+00 -0.33909E-02  0.68864E+00  0.00000E+00 -0.13077E-01  0.67259E+00  0.00000E+00 -0.10238E-01  0.67998E+00  0.00000E+00 -0.10203E-01  0.66175E+00  0.00000E+00 -0.19533E-01
          0.65572E+00  0.00000E+00 -0.20230E-01  0.63595E+00  0.00000E+00 -0.26482E-01  0.62465E+00  0.00000E+00 -0.30521E-01  0.60763E+00  0.00000E+00 -0.38516E-01  0.59650E+00  0.00000E+00 -0.44077E-01  0.57703E+00  0.00000E+00 -0.47839E-01
          0.56315E+00  0.00000E+00 -0.51254E-01  0.54830E+00  0.00000E+00 -0.55203E-01  0.53017E+00  0.00000E+00 -0.62552E-01  0.50912E+00  0.00000E+00 -0.67617E-01  0.49546E+00  0.00000E+00 -0.67256E-01  0.46756E+00  0.00000E+00 -0.84180E-01
          0.45382E+00  0.00000E+00 -0.85356E-01  0.46723E+00  0.00000E+00 -0.85491E-01  0.44375E+00  0.00000E+00 -0.96371E-01  0.44927E+00  0.00000E+00 -0.10249E+00  0.43823E+00  0.00000E+00 -0.10266E+00  0.41571E+00  0.00000E+00 -0.11386E+00
          0.42672E+00  0.00000E+00 -0.10546E+00  0.41634E+00  0.00000E+00 -0.12041E+00  0.37973E+00  0.00000E+00 -0.15388E+00  0.39943E+00  0.00000E+00 -0.14305E+00  0.39338E+00  0.00000E+00 -0.14612E+00  0.38843E+00  0.00000E+00 -0.14833E+00
          0.70637E+00  0.00000E+00  0.93260E-04  0.71281E+00  0.00000E+00 -0.48722E-02  0.75116E+00  0.00000E+00 -0.13037E-01  0.71019E+00  0.00000E+00 -0.88896E-02  0.73893E+00  0.00000E+00 -0.18316E-01  0.69829E+00  0.00000E+00 -0.19214E-01