<?xml version="1.0"?>
<VTKFile type="UnstructuredGrid" version="0.1" byte_order="LittleEndian" compressor="vtkZLibDataCompressor">
<UnstructuredGrid>
  <Piece NumberOfPoints="1800"        NumberOfCells="1"      >
    <Points>
      <DataArray type="Float32" NumberOfComponents="3" format="ascii" >
        0.71277E-02  0.00000E+00  0.33775E-02  0.59840E-02  0.00000E+00  0.12061E-01  0.57974E-02  0.00000E+00  0.20373E-01  0.58902E-02  0.00000E+00  0.28753E-01  0.58676E-02  0.00000E+00  0.37099E-01  0.58555E-02  0.00000E+00  0.45476E-01
        0.58355E-02  0.00000E+00  0.53871E-01  0.58108E-02  0.00000E+00  0.62300E-01  0.57830E-02  0.00000E+00  0.70768E-01  0.57531E-02  0.00000E+00  0.79279E-01  0.57219E-02  0.00000E+00  0.87835E-01  0.56902E-02  0.00000E+00  0.96440E-01
        0.56582E-02  0.00000E+00  0.10509E+00  0.56262E-02  0.00000E+00  0.11380E+00  0.55944E-02  0.00000E+00  0.12255E+00  0.55630E-02  0.00000E+00  0.13135E+00  0.55321E-02  0.00000E+00  0.14020E+00  0.55021E-02  0.00000E+00  0.14910E+00
        0.54730E-02  0.00000E+00  0.15805E+00  0.54453E-02  0.00000E+00  0.16705E+00  0.54188E-02  0.00000E+00  0.17609E+00  0.53944E-02  0.00000E+00  0.18518E+00  0.53712E-02  0.00000E+00  0.19430E+00  0.53510E-02  0.00000E+00  0.20347E+00
        0.53326E-02  0.00000E+00  0.21266E+00  0.53168E-02  0.00000E+00  0.22189E+00  0.53054E-02  0.00000E+00  0.23114E+00  0.52881E-02  0.00000E+00  0.24040E+00  0.53004E-02  0.00000E+00  0.24980E+00  0.51532E-02  0.00000E+00  0.25873E+00
        0.19330E-01  0.00000E+00  0.43097E-02  0.17801E-01  0.00000E+00  0.12898E-01  0.17668E-01  0.00000E+00  0.21024E-01  0.17752E-01  0.00000E+00  0.29227E-01  0.17668E-01  0.00000E+00  0.37503E-01  0.17627E-01  0.00000E+00  0.45807E-01
        0.17554E-01  0.00000E+00  0.54148E-01  0.17477E-01  0.00000E+00  0.62542E-01  0.17394E-01  0.00000E+00  0.70980E-01  0.17308E-01  0.00000E+00  0.79468E-01  0.17220E-01  0.00000E+00  0.88005E-01  0.17131E-01  0.00000E+00  0.96592E-01
        0.17042E-01  0.00000E+00  0.10523E+00  0.16954E-01  0.00000E+00  0.11391E+00  0.16867E-01  0.00000E+00  0.12265E+00  0.16780E-01  0.00000E+00  0.13143E+00  0.16695E-01  0.00000E+00  0.14026E+00  0.16612E-01  0.00000E+00  0.14915E+00
        0.16532E-01  0.00000E+00  0.15807E+00  0.16454E-01  0.00000E+00  0.16705E+00  0.16380E-01  0.00000E+00  0.17607E+00  0.16311E-01  0.00000E+00  0.18514E+00  0.16245E-01  0.00000E+00  0.19424E+00  0.16187E-01  0.00000E+00  0.20338E+00
        0.16132E-01  0.00000E+00  0.21256E+00  0.16084E-01  0.00000E+00  0.22176E+00  0.16046E-01  0.00000E+00  0.23101E+00  0.15998E-01  0.00000E+00  0.24022E+00  0.15973E-01  0.00000E+00  0.24963E+00  0.15882E-01  0.00000E+00  0.25852E+00
        0.31098E-01  0.00000E+00  0.44103E-02  0.29853E-01  0.00000E+00  0.13146E-01  0.29719E-01  0.00000E+00  0.21323E-01  0.29718E-01  0.00000E+00  0.29583E-01  0.29609E-01  0.00000E+00  0.37901E-01  0.29504E-01  0.00000E+00  0.46221E-01
        0.29376E-01  0.00000E+00  0.54579E-01  0.29236E-01  0.00000E+00  0.62981E-01  0.29090E-01  0.00000E+00  0.71422E-01  0.28940E-01  0.00000E+00  0.79908E-01  0.28787E-01  0.00000E+00  0.88441E-01  0.28635E-01  0.00000E+00  0.97020E-01
        0.28483E-01  0.00000E+00  0.10565E+00  0.28331E-01  0.00000E+00  0.11432E+00  0.28181E-01  0.00000E+00  0.12305E+00  0.28034E-01  0.00000E+00  0.13182E+00  0.27889E-01  0.00000E+00  0.14064E+00  0.27748E-01  0.00000E+00  0.14950E+00
        0.27611E-01  0.00000E+00  0.15841E+00  0.27480E-01  0.00000E+00  0.16737E+00  0.27355E-01  0.00000E+00  0.17637E+00  0.27237E-01  0.00000E+00  0.18542E+00  0.27127E-01  0.00000E+00  0.19450E+00  0.27027E-01  0.00000E+00  0.20363E+00
        0.26935E-01  0.00000E+00  0.21278E+00  0.26857E-01  0.00000E+00  0.22197E+00  0.26787E-01  0.00000E+00  0.23121E+00  0.26728E-01  0.00000E+00  0.24040E+00  0.26684E-01  0.00000E+00  0.24982E+00  0.26653E-01  0.00000E+00  0.25863E+00
        0.42821E-01  0.00000E+00  0.43980E-02  0.41967E-01  0.00000E+00  0.13194E-01  0.41802E-01  0.00000E+00  0.21409E-01  0.41776E-01  0.00000E+00  0.29716E-01  0.41644E-01  0.00000E+00  0.38062E-01  0.41499E-01  0.00000E+00  0.46406E-01
        0.41324E-01  0.00000E+00  0.54784E-01  0.41131E-01  0.00000E+00  0.63198E-01  0.40928E-01  0.00000E+00  0.71648E-01  0.40718E-01  0.00000E+00  0.80140E-01  0.40505E-01  0.00000E+00  0.88675E-01  0.40291E-01  0.00000E+00  0.97254E-01
        0.40078E-01  0.00000E+00  0.10588E+00  0.39866E-01  0.00000E+00  0.11455E+00  0.39656E-01  0.00000E+00  0.12327E+00  0.39449E-01  0.00000E+00  0.13203E+00  0.39246E-01  0.00000E+00  0.14084E+00  0.39048E-01  0.00000E+00  0.14969E+00
        0.38857E-01  0.00000E+00  0.15859E+00  0.38672E-01  0.00000E+00  0.16753E+00  0.38496E-01  0.00000E+00  0.17651E+00  0.38330E-01  0.00000E+00  0.18554E+00  0.38175E-01  0.00000E+00  0.19460E+00  0.38032E-01  0.00000E+00  0.20371E+00
        0.37903E-01  0.00000E+00  0.21284E+00  0.37790E-01  0.00000E+00  0.22201E+00  0.37692E-01  0.00000E+00  0.23122E+00  0.37610E-01  0.00000E+00  0.24038E+00  0.37551E-01  0.00000E+00  0.24975E+00  0.37493E-01  0.00000E+00  0.25858E+00
        0.54510E-01  0.00000E+00  0.44040E-02  0.53992E-01  0.00000E+00  0.13214E-01  0.53837E-01  0.00000E+00  0.21444E-01  0.53777E-01  0.00000E+00  0.29761E-01  0.53627E-01  0.00000E+00  0.38113E-01  0.53445E-01  0.00000E+00  0.46467E-01
        0.53224E-01  0.00000E+00  0.54854E-01  0.52980E-01  0.00000E+00  0.63276E-01  0.52722E-01  0.00000E+00  0.71733E-01  0.52455E-01  0.00000E+00  0.80230E-01  0.52183E-01  0.00000E+00  0.88768E-01  0.51909E-01  0.00000E+00  0.97349E-01
        0.51635E-01  0.00000E+00  0.10597E+00  0.51362E-01  0.00000E+00  0.11464E+00  0.51092E-01  0.00000E+00  0.12335E+00  0.50825E-01  0.00000E+00  0.13211E+00  0.50564E-01  0.00000E+00  0.14091E+00  0.50308E-01  0.00000E+00  0.14976E+00
        0.50060E-01  0.00000E+00  0.15865E+00  0.49821E-01  0.00000E+00  0.16758E+00  0.49593E-01  0.00000E+00  0.17655E+00  0.49376E-01  0.00000E+00  0.18557E+00  0.49173E-01  0.00000E+00  0.19462E+00  0.48986E-01  0.00000E+00  0.20371E+00
        0.48815E-01  0.00000E+00  0.21283E+00  0.48664E-01  0.00000E+00  0.22198E+00  0.48535E-01  0.00000E+00  0.23118E+00  0.48425E-01  0.00000E+00  0.24034E+00  0.48355E-01  0.00000E+00  0.24971E+00  0.48306E-01  0.00000E+00  0.25850E+00
        0.66206E-01  0.00000E+00  0.43960E-02  0.65987E-01  0.00000E+00  0.13212E-01  0.65863E-01  0.00000E+00  0.21451E-01  0.65775E-01  0.00000E+00  0.29768E-01  0.65606E-01  0.00000E+00  0.38119E-01  0.65386E-01  0.00000E+00  0.46473E-01
        0.65121E-01  0.00000E+00  0.54860E-01  0.64828E-01  0.00000E+00  0.63283E-01  0.64518E-01  0.00000E+00  0.71740E-01  0.64196E-01  0.00000E+00  0.80237E-01  0.63867E-01  0.00000E+00  0.88775E-01  0.63536E-01  0.00000E+00  0.97354E-01
        0.63204E-01  0.00000E+00  0.10598E+00  0.62874E-01  0.00000E+00  0.11464E+00  0.62547E-01  0.00000E+00  0.12335E+00  0.62224E-01  0.00000E+00  0.13210E+00  0.61906E-01  0.00000E+00  0.14090E+00  0.61597E-01  0.00000E+00  0.14974E+00
        0.61295E-01  0.00000E+00  0.15862E+00  0.61005E-01  0.00000E+00  0.16754E+00  0.60727E-01  0.00000E+00  0.17651E+00  0.60463E-01  0.00000E+00  0.18551E+00  0.60216E-01  0.00000E+00  0.19455E+00  0.59987E-01  0.00000E+00  0.20363E+00
        0.59781E-01  0.00000E+00  0.21274E+00  0.59597E-01  0.00000E+00  0.22188E+00  0.59442E-01  0.00000E+00  0.23106E+00  0.59315E-01  0.00000E+00  0.24020E+00  0.59227E-01  0.00000E+00  0.24954E+00  0.59160E-01  0.00000E+00  0.25832E+00
        0.77932E-01  0.00000E+00  0.43848E-02  0.77967E-01  0.00000E+00  0.13196E-01  0.77894E-01  0.00000E+00  0.21436E-01  0.77785E-01  0.00000E+00  0.29747E-01  0.77595E-01  0.00000E+00  0.38088E-01  0.77337E-01  0.00000E+00  0.46435E-01
        0.77028E-01  0.00000E+00  0.54815E-01  0.76685E-01  0.00000E+00  0.63232E-01  0.76322E-01  0.00000E+00  0.71684E-01  0.75945E-01  0.00000E+00  0.80176E-01  0.75560E-01  0.00000E+00  0.88709E-01  0.75173E-01  0.00000E+00  0.97284E-01
        0.74784E-01  0.00000E+00  0.10590E+00  0.74396E-01  0.00000E+00  0.11456E+00  0.74012E-01  0.00000E+00  0.12326E+00  0.73633E-01  0.00000E+00  0.13201E+00  0.73260E-01  0.00000E+00  0.14080E+00  0.72895E-01  0.00000E+00  0.14963E+00
        0.72540E-01  0.00000E+00  0.15851E+00  0.72198E-01  0.00000E+00  0.16742E+00  0.71870E-01  0.00000E+00  0.17638E+00  0.71558E-01  0.00000E+00  0.18537E+00  0.71265E-01  0.00000E+00  0.19440E+00  0.70994E-01  0.00000E+00  0.20348E+00
        0.70748E-01  0.00000E+00  0.21257E+00  0.70529E-01  0.00000E+00  0.22170E+00  0.70343E-01  0.00000E+00  0.23087E+00  0.70189E-01  0.00000E+00  0.24001E+00  0.70085E-01  0.00000E+00  0.24935E+00  0.70011E-01  0.00000E+00  0.25810E+00
        0.89691E-01  0.00000E+00  0.43729E-02  0.89946E-01  0.00000E+00  0.13173E-01  0.89934E-01  0.00000E+00  0.21407E-01  0.89811E-01  0.00000E+00  0.29704E-01  0.89600E-01  0.00000E+00  0.38032E-01  0.89302E-01  0.00000E+00  0.46366E-01
        0.88947E-01  0.00000E+00  0.54734E-01  0.88554E-01  0.00000E+00  0.63140E-01  0.88137E-01  0.00000E+00  0.71583E-01  0.87704E-01  0.00000E+00  0.80067E-01  0.87264E-01  0.00000E+00  0.88592E-01  0.86819E-01  0.00000E+00  0.97159E-01
        0.86373E-01  0.00000E+00  0.10577E+00  0.85929E-01  0.00000E+00  0.11442E+00  0.85488E-01  0.00000E+00  0.12312E+00  0.85053E-01  0.00000E+00  0.13186E+00  0.84625E-01  0.00000E+00  0.14064E+00  0.84206E-01  0.00000E+00  0.14946E+00
        0.83799E-01  0.00000E+00  0.15833E+00  0.83405E-01  0.00000E+00  0.16724E+00  0.83027E-01  0.00000E+00  0.17618E+00  0.82668E-01  0.00000E+00  0.18517E+00  0.82331E-01  0.00000E+00  0.19419E+00  0.82018E-01  0.00000E+00  0.20326E+00
        0.81734E-01  0.00000E+00  0.21234E+00  0.81482E-01  0.00000E+00  0.22146E+00  0.81269E-01  0.00000E+00  0.23062E+00  0.81094E-01  0.00000E+00  0.23974E+00  0.80974E-01  0.00000E+00  0.24907E+00  0.80886E-01  0.00000E+00  0.25781E+00
[...]
<PointData>
      <DataArray type="Float32" Name="Velocity vectors"  NumberOfComponents="3"  format="ascii" >
          0.22138E-01  0.00000E+00 -0.13366E-01  0.62649E-02  0.00000E+00 -0.21376E-01  0.44317E-02  0.00000E+00 -0.29537E-01  0.63893E-02  0.00000E+00 -0.39626E-01  0.61547E-02  0.00000E+00 -0.50414E-01  0.58067E-02  0.00000E+00 -0.60371E-01
          0.55974E-02  0.00000E+00 -0.70113E-01  0.53825E-02  0.00000E+00 -0.79598E-01  0.51508E-02  0.00000E+00 -0.88770E-01  0.49324E-02  0.00000E+00 -0.97699E-01  0.47067E-02  0.00000E+00 -0.10635E+00  0.44911E-02  0.00000E+00 -0.11474E+00
          0.42891E-02  0.00000E+00 -0.12285E+00  0.41113E-02  0.00000E+00 -0.13071E+00  0.39573E-02  0.00000E+00 -0.13838E+00  0.38119E-02  0.00000E+00 -0.14591E+00  0.36676E-02  0.00000E+00 -0.15331E+00  0.35259E-02  0.00000E+00 -0.16057E+00
          0.33914E-02  0.00000E+00 -0.16767E+00  0.32655E-02  0.00000E+00 -0.17463E+00  0.31499E-02  0.00000E+00 -0.18142E+00  0.30511E-02  0.00000E+00 -0.18808E+00  0.29510E-02  0.00000E+00 -0.19461E+00  0.28943E-02  0.00000E+00 -0.20098E+00
          0.27870E-02  0.00000E+00 -0.20731E+00  0.28049E-02  0.00000E+00 -0.21337E+00  0.26148E-02  0.00000E+00 -0.21959E+00  0.27564E-02  0.00000E+00 -0.22536E+00  0.25661E-02  0.00000E+00 -0.23083E+00  0.14307E-02  0.00000E+00 -0.23874E+00
          0.40328E-01  0.00000E+00 -0.57285E-02  0.14361E-01  0.00000E+00 -0.15398E-01  0.16798E-01  0.00000E+00 -0.24570E-01  0.19136E-01  0.00000E+00 -0.35779E-01  0.17786E-01  0.00000E+00 -0.46458E-01  0.17458E-01  0.00000E+00 -0.56530E-01
          0.16627E-01  0.00000E+00 -0.66794E-01  0.15924E-01  0.00000E+00 -0.76538E-01  0.15201E-01  0.00000E+00 -0.85916E-01  0.14512E-01  0.00000E+00 -0.94998E-01  0.13840E-01  0.00000E+00 -0.10373E+00  0.13193E-01  0.00000E+00 -0.11218E+00
          0.12578E-01  0.00000E+00 -0.12038E+00  0.12007E-01  0.00000E+00 -0.12832E+00  0.11604E-01  0.00000E+00 -0.13607E+00  0.11264E-01  0.00000E+00 -0.14366E+00  0.10918E-01  0.00000E+00 -0.15109E+00  0.10576E-01  0.00000E+00 -0.15837E+00
          0.10247E-01  0.00000E+00 -0.16551E+00  0.99379E-02  0.00000E+00 -0.17252E+00  0.96508E-02  0.00000E+00 -0.17938E+00  0.93995E-02  0.00000E+00 -0.18611E+00  0.91553E-02  0.00000E+00 -0.19276E+00  0.89813E-02  0.00000E+00 -0.19917E+00
          0.87590E-02  0.00000E+00 -0.20573E+00  0.86838E-02  0.00000E+00 -0.21174E+00  0.84462E-02  0.00000E+00 -0.21827E+00  0.84269E-02  0.00000E+00 -0.22413E+00  0.81547E-02  0.00000E+00 -0.22935E+00  0.74306E-02  0.00000E+00 -0.23885E+00
          0.53756E-01  0.00000E+00 -0.44268E-02  0.29069E-01  0.00000E+00 -0.13718E-01  0.31108E-01  0.00000E+00 -0.23654E-01  0.32858E-01  0.00000E+00 -0.34675E-01  0.31450E-01  0.00000E+00 -0.44723E-01  0.30552E-01  0.00000E+00 -0.54556E-01
          0.29192E-01  0.00000E+00 -0.64469E-01  0.27875E-01  0.00000E+00 -0.73884E-01  0.26572E-01  0.00000E+00 -0.83087E-01  0.25348E-01  0.00000E+00 -0.92030E-01  0.24205E-01  0.00000E+00 -0.10069E+00  0.23153E-01  0.00000E+00 -0.10915E+00
          0.22204E-01  0.00000E+00 -0.11739E+00  0.21368E-01  0.00000E+00 -0.12547E+00  0.20629E-01  0.00000E+00 -0.13336E+00  0.19959E-01  0.00000E+00 -0.14102E+00  0.19329E-01  0.00000E+00 -0.14850E+00  0.18738E-01  0.00000E+00 -0.15582E+00
          0.18185E-01  0.00000E+00 -0.16299E+00  0.17677E-01  0.00000E+00 -0.17005E+00  0.17214E-01  0.00000E+00 -0.17697E+00  0.16799E-01  0.00000E+00 -0.18378E+00  0.16436E-01  0.00000E+00 -0.19054E+00  0.16112E-01  0.00000E+00 -0.19702E+00
          0.15841E-01  0.00000E+00 -0.20375E+00  0.15594E-01  0.00000E+00 -0.20979E+00  0.15366E-01  0.00000E+00 -0.21654E+00  0.15143E-01  0.00000E+00 -0.22247E+00  0.14814E-01  0.00000E+00 -0.22788E+00  0.14337E-01  0.00000E+00 -0.23759E+00
          0.63854E-01  0.00000E+00 -0.35782E-02  0.45120E-01  0.00000E+00 -0.12028E-01  0.44847E-01  0.00000E+00 -0.22504E-01  0.46253E-01  0.00000E+00 -0.33438E-01  0.44544E-01  0.00000E+00 -0.43418E-01  0.43193E-01  0.00000E+00 -0.53218E-01
          0.41410E-01  0.00000E+00 -0.62968E-01  0.39605E-01  0.00000E+00 -0.72273E-01  0.37855E-01  0.00000E+00 -0.81386E-01  0.36198E-01  0.00000E+00 -0.90247E-01  0.34652E-01  0.00000E+00 -0.98860E-01  0.33220E-01  0.00000E+00 -0.10728E+00
          0.31908E-01  0.00000E+00 -0.11549E+00  0.30719E-01  0.00000E+00 -0.12351E+00  0.29657E-01  0.00000E+00 -0.13134E+00  0.28702E-01  0.00000E+00 -0.13901E+00  0.27827E-01  0.00000E+00 -0.14651E+00  0.27025E-01  0.00000E+00 -0.15387E+00
          0.26288E-01  0.00000E+00 -0.16109E+00  0.25617E-01  0.00000E+00 -0.16821E+00  0.25013E-01  0.00000E+00 -0.17521E+00  0.24472E-01  0.00000E+00 -0.18209E+00  0.24002E-01  0.00000E+00 -0.18895E+00  0.23582E-01  0.00000E+00 -0.19554E+00
          0.23234E-01  0.00000E+00 -0.20241E+00  0.22920E-01  0.00000E+00 -0.20861E+00  0.22663E-01  0.00000E+00 -0.21553E+00  0.22396E-01  0.00000E+00 -0.22167E+00  0.22228E-01  0.00000E+00 -0.22745E+00  0.21905E-01  0.00000E+00 -0.23729E+00
          0.72776E-01  0.00000E+00 -0.33880E-02  0.60720E-01  0.00000E+00 -0.11110E-01  0.59321E-01  0.00000E+00 -0.21633E-01  0.59940E-01  0.00000E+00 -0.32545E-01  0.58085E-01  0.00000E+00 -0.42606E-01  0.56183E-01  0.00000E+00 -0.52430E-01
          0.53893E-01  0.00000E+00 -0.62144E-01  0.51576E-01  0.00000E+00 -0.71396E-01  0.49343E-01  0.00000E+00 -0.80423E-01  0.47242E-01  0.00000E+00 -0.89190E-01  0.45297E-01  0.00000E+00 -0.97711E-01  0.43512E-01  0.00000E+00 -0.10604E+00
          0.41888E-01  0.00000E+00 -0.11418E+00  0.40408E-01  0.00000E+00 -0.12215E+00  0.39056E-01  0.00000E+00 -0.12995E+00  0.37819E-01  0.00000E+00 -0.13760E+00  0.36688E-01  0.00000E+00 -0.14509E+00  0.35654E-01  0.00000E+00 -0.15246E+00
          0.34713E-01  0.00000E+00 -0.15969E+00  0.33862E-01  0.00000E+00 -0.16683E+00  0.33099E-01  0.00000E+00 -0.17386E+00  0.32424E-01  0.00000E+00 -0.18079E+00  0.31828E-01  0.00000E+00 -0.18771E+00  0.31319E-01  0.00000E+00 -0.19438E+00
          0.30873E-01  0.00000E+00 -0.20133E+00  0.30501E-01  0.00000E+00 -0.20763E+00  0.30182E-01  0.00000E+00 -0.21468E+00  0.29866E-01  0.00000E+00 -0.22091E+00  0.29658E-01  0.00000E+00 -0.22678E+00  0.29345E-01  0.00000E+00 -0.23678E+00
          0.81093E-01  0.00000E+00 -0.32573E-02  0.75549E-01  0.00000E+00 -0.10623E-01  0.73761E-01  0.00000E+00 -0.21039E-01  0.73555E-01  0.00000E+00 -0.31932E-01  0.71462E-01  0.00000E+00 -0.42041E-01  0.68984E-01  0.00000E+00 -0.51841E-01
          0.66169E-01  0.00000E+00 -0.61524E-01  0.63343E-01  0.00000E+00 -0.70742E-01  0.60639E-01  0.00000E+00 -0.79723E-01  0.58111E-01  0.00000E+00 -0.88442E-01  0.55779E-01  0.00000E+00 -0.96914E-01  0.53637E-01  0.00000E+00 -0.10519E+00
          0.51674E-01  0.00000E+00 -0.11326E+00  0.49879E-01  0.00000E+00 -0.12117E+00  0.48242E-01  0.00000E+00 -0.12891E+00  0.46752E-01  0.00000E+00 -0.13651E+00  0.45395E-01  0.00000E+00 -0.14398E+00  0.44162E-01  0.00000E+00 -0.15134E+00
          0.43046E-01  0.00000E+00 -0.15857E+00  0.42044E-01  0.00000E+00 -0.16573E+00  0.41149E-01  0.00000E+00 -0.17279E+00  0.40363E-01  0.00000E+00 -0.17976E+00  0.39673E-01  0.00000E+00 -0.18673E+00  0.39082E-01  0.00000E+00 -0.19347E+00
          0.38578E-01  0.00000E+00 -0.20050E+00  0.38148E-01  0.00000E+00 -0.20688E+00  0.37814E-01  0.00000E+00 -0.21404E+00  0.37503E-01  0.00000E+00 -0.22039E+00  0.37363E-01  0.00000E+00 -0.22639E+00  0.37007E-01  0.00000E+00 -0.23657E+00
          0.89473E-01  0.00000E+00 -0.32525E-02  0.89843E-01  0.00000E+00 -0.10408E-01  0.88429E-01  0.00000E+00 -0.20643E-01  0.87473E-01  0.00000E+00 -0.31541E-01  0.85118E-01  0.00000E+00 -0.41711E-01  0.82052E-01  0.00000E+00 -0.51524E-01
          0.78681E-01  0.00000E+00 -0.61206E-01  0.75319E-01  0.00000E+00 -0.70403E-01  0.72115E-01  0.00000E+00 -0.79346E-01  0.69139E-01  0.00000E+00 -0.88018E-01  0.66405E-01  0.00000E+00 -0.96433E-01  0.63907E-01  0.00000E+00 -0.10465E+00
          0.61630E-01  0.00000E+00 -0.11267E+00  0.59554E-01  0.00000E+00 -0.12054E+00  0.57657E-01  0.00000E+00 -0.12825E+00  0.55926E-01  0.00000E+00 -0.13583E+00  0.54348E-01  0.00000E+00 -0.14328E+00  0.52917E-01  0.00000E+00 -0.15063E+00
          0.51624E-01  0.00000E+00 -0.15786E+00  0.50466E-01  0.00000E+00 -0.16504E+00  0.49436E-01  0.00000E+00 -0.17211E+00  0.48536E-01  0.00000E+00 -0.17912E+00  0.47751E-01  0.00000E+00 -0.18613E+00  0.47085E-01  0.00000E+00 -0.19291E+00
          0.46521E-01  0.00000E+00 -0.20001E+00  0.46057E-01  0.00000E+00 -0.20645E+00  0.45690E-01  0.00000E+00 -0.21372E+00  0.45357E-01  0.00000E+00 -0.22012E+00  0.45173E-01  0.00000E+00 -0.22620E+00  0.44738E-01  0.00000E+00 -0.23650E+00
          0.98067E-01  0.00000E+00 -0.32566E-02  0.10372E+00  0.00000E+00 -0.10350E-01  0.10311E+00  0.00000E+00 -0.20423E-01  0.10155E+00  0.00000E+00 -0.31329E-01  0.98858E-01  0.00000E+00 -0.41554E-01  0.95173E-01  0.00000E+00 -0.51375E-01
          0.91219E-01  0.00000E+00 -0.61051E-01  0.87304E-01  0.00000E+00 -0.70228E-01  0.83596E-01  0.00000E+00 -0.79141E-01  0.80173E-01  0.00000E+00 -0.87781E-01  0.77040E-01  0.00000E+00 -0.96163E-01  0.74184E-01  0.00000E+00 -0.10435E+00
          0.71581E-01  0.00000E+00 -0.11234E+00  0.69209E-01  0.00000E+00 -0.12016E+00  0.67047E-01  0.00000E+00 -0.12784E+00  0.65079E-01  0.00000E+00 -0.13540E+00  0.63291E-01  0.00000E+00 -0.14283E+00  0.61674E-01  0.00000E+00 -0.15017E+00
          0.60218E-01  0.00000E+00 -0.15741E+00  0.58920E-01  0.00000E+00 -0.16460E+00  0.57769E-01  0.00000E+00 -0.17169E+00  0.56767E-01  0.00000E+00 -0.17873E+00  0.55896E-01  0.00000E+00 -0.18578E+00  0.55163E-01  0.00000E+00 -0.19261E+00
          0.54542E-01  0.00000E+00 -0.19977E+00  0.54035E-01  0.00000E+00 -0.20626E+00  0.53638E-01  0.00000E+00 -0.21362E+00  0.53291E-01  0.00000E+00 -0.22007E+00  0.53121E-01  0.00000E+00 -0.22624E+00  0.52630E-01  0.00000E+00 -0.23669E+00
          0.10696E+00  0.00000E+00 -0.32498E-02  0.11747E+00  0.00000E+00 -0.10332E-01  0.11795E+00  0.00000E+00 -0.20272E-01  0.11595E+00  0.00000E+00 -0.31216E-01  0.11289E+00  0.00000E+00 -0.41502E-01  0.10856E+00  0.00000E+00 -0.51346E-01
          0.10399E+00  0.00000E+00 -0.61032E-01  0.99500E-01  0.00000E+00 -0.70198E-01  0.95269E-01  0.00000E+00 -0.79087E-01  0.91382E-01  0.00000E+00 -0.87698E-01  0.87839E-01  0.00000E+00 -0.96047E-01  0.84621E-01  0.00000E+00 -0.10420E+00
          0.81699E-01  0.00000E+00 -0.11216E+00  0.79045E-01  0.00000E+00 -0.11996E+00  0.76631E-01  0.00000E+00 -0.12763E+00  0.74434E-01  0.00000E+00 -0.13517E+00  0.72440E-01  0.00000E+00 -0.14260E+00  0.70636E-01  0.00000E+00 -0.14995E+00
          0.69015E-01  0.00000E+00 -0.15719E+00  0.67571E-01  0.00000E+00 -0.16439E+00  0.66293E-01  0.00000E+00 -0.17151E+00  0.65184E-01  0.00000E+00 -0.17858E+00  0.64224E-01  0.00000E+00 -0.18566E+00  0.63421E-01  0.00000E+00 -0.19254E+00
          0.62745E-01  0.00000E+00 -0.19976E+00  0.62203E-01  0.00000E+00 -0.20630E+00  0.61778E-01  0.00000E+00 -0.21375E+00  0.61410E-01  0.00000E+00 -0.22025E+00  0.61204E-01  0.00000E+00 -0.22650E+00  0.60627E-01  0.00000E+00 -0.23705E+00
          0.11608E+00  0.00000E+00 -0.32122E-02  0.13117E+00  0.00000E+00 -0.10338E-01  0.13291E+00  0.00000E+00 -0.20169E-01  0.13061E+00  0.00000E+00 -0.31164E-01  0.12713E+00  0.00000E+00 -0.41512E-01  0.12212E+00  0.00000E+00 -0.51384E-01
          0.11689E+00  0.00000E+00 -0.61084E-01  0.11180E+00  0.00000E+00 -0.70244E-01  0.10704E+00  0.00000E+00 -0.79119E-01  0.10268E+00  0.00000E+00 -0.87711E-01  0.98729E-01  0.00000E+00 -0.96040E-01  0.95149E-01  0.00000E+00 -0.10417E+00
          0.91906E-01  0.00000E+00 -0.11212E+00  0.88963E-01  0.00000E+00 -0.11990E+00  0.86290E-01  0.00000E+00 -0.12756E+00  0.83864E-01  0.00000E+00 -0.13509E+00  0.81664E-01  0.00000E+00 -0.14252E+00  0.79680E-01  0.00000E+00 -0.14987E+00
          0.77899E-01  0.00000E+00 -0.15713E+00  0.76317E-01  0.00000E+00 -0.16436E+00  0.74921E-01  0.00000E+00 -0.17150E+00  0.73713E-01  0.00000E+00 -0.17861E+00  0.72669E-01  0.00000E+00 -0.18573E+00  0.71800E-01  0.00000E+00 -0.19265E+00
          0.71067E-01  0.00000E+00 -0.19993E+00  0.70484E-01  0.00000E+00 -0.20652E+00  0.70018E-01  0.00000E+00 -0.21405E+00  0.69619E-01  0.00000E+00 -0.22059E+00  0.69400E-01  0.00000E+00 -0.22692E+00  0.68749E-01  0.00000E+00 -0.23760E+00
          0.12544E+00  0.00000E+00 -0.31464E-02  0.14495E+00  0.00000E+00 -0.10334E-01  0.14812E+00  0.00000E+00 -0.20056E-01  0.14563E+00  0.00000E+00 -0.31126E-01  0.14170E+00  0.00000E+00 -0.41543E-01  0.13598E+00  0.00000E+00 -0.51457E-01
          0.13007E+00  0.00000E+00 -0.61187E-01  0.12435E+00  0.00000E+00 -0.70354E-01  0.11903E+00  0.00000E+00 -0.79224E-01  0.11419E+00  0.00000E+00 -0.87806E-01  0.10982E+00  0.00000E+00 -0.96120E-01  0.10587E+00  0.00000E+00 -0.10424E+00
          0.10230E+00  0.00000E+00 -0.11217E+00  0.99075E-01  0.00000E+00 -0.11995E+00  0.96151E-01  0.00000E+00 -0.12760E+00  0.93499E-01  0.00000E+00 -0.13514E+00  0.91097E-01  0.00000E+00 -0.14257E+00  0.88932E-01  0.00000E+00 -0.14994E+00
          0.86989E-01  0.00000E+00 -0.15722E+00  0.85264E-01  0.00000E+00 -0.16447E+00  0.83743E-01  0.00000E+00 -0.17164E+00  0.82428E-01  0.00000E+00 -0.17879E+00  0.81292E-01  0.00000E+00 -0.18595E+00  0.80349E-01  0.00000E+00 -0.19292E+00
          0.79554E-01  0.00000E+00 -0.20027E+00  0.78926E-01  0.00000E+00 -0.20690E+00  0.78423E-01  0.00000E+00 -0.21453E+00  0.77991E-01  0.00000E+00 -0.22111E+00  0.77738E-01  0.00000E+00 -0.22752E+00  0.76991E-01  0.00000E+00 -0.23832E+00
          0.13493E+00  0.00000E+00 -0.30400E-02  0.15882E+00  0.00000E+00 -0.10316E-01  0.16358E+00  0.00000E+00 -0.19918E-01  0.16097E+00  0.00000E+00 -0.31093E-01  0.15658E+00  0.00000E+00 -0.41591E-01  0.15009E+00  0.00000E+00 -0.51554E-01
          0.14346E+00  0.00000E+00 -0.61317E-01  0.13708E+00  0.00000E+00 -0.70494E-01  0.13118E+00  0.00000E+00 -0.79367E-01  0.12585E+00  0.00000E+00 -0.87949E-01  0.12105E+00  0.00000E+00 -0.96260E-01  0.11674E+00  0.00000E+00 -0.10437E+00
          0.11284E+00  0.00000E+00 -0.11230E+00  0.10933E+00  0.00000E+00 -0.12008E+00  0.10615E+00  0.00000E+00 -0.12774E+00  0.10327E+00  0.00000E+00 -0.13528E+00  0.10066E+00  0.00000E+00 -0.14273E+00  0.98317E-01  0.00000E+00 -0.15011E+00
          0.96215E-01  0.00000E+00 -0.15741E+00  0.94350E-01  0.00000E+00 -0.16469E+00  0.92708E-01  0.00000E+00 -0.17190E+00  0.91290E-01  0.00000E+00 -0.17909E+00  0.90066E-01  0.00000E+00 -0.18631E+00  0.89052E-01  0.00000E+00 -0.19333E+00
          0.88194E-01  0.00000E+00 -0.20075E+00  0.87518E-01  0.00000E+00 -0.20743E+00  0.86964E-01  0.00000E+00 -0.21516E+00  0.86487E-01  0.00000E+00 -0.22178E+00  0.86202E-01  0.00000E+00 -0.22827E+00  0.85361E-01  0.00000E+00 -0.23921E+00
          0.14456E+00  0.00000E+00 -0.29152E-02  0.17278E+00  0.00000E+00 -0.10306E-01  0.17939E+00  0.00000E+00 -0.19754E-01  0.17671E+00  0.00000E+00 -0.31056E-01  0.17186E+00  0.00000E+00 -0.41644E-01  0.16455E+00  0.00000E+00 -0.51661E-01
          0.15714E+00  0.00000E+00 -0.61462E-01  0.15008E+00  0.00000E+00 -0.70653E-01  0.14360E+00  0.00000E+00 -0.79533E-01  0.13776E+00  0.00000E+00 -0.88124E-01  0.13252E+00  0.00000E+00 -0.96442E-01  0.12782E+00  0.00000E+00 -0.10456E+00
          0.12360E+00  0.00000E+00 -0.11250E+00  0.11980E+00  0.00000E+00 -0.12029E+00  0.11636E+00  0.00000E+00 -0.12795E+00  0.11325E+00  0.00000E+00 -0.13551E+00  0.11045E+00  0.00000E+00 -0.14298E+00  0.10792E+00  0.00000E+00 -0.15039E+00
          0.10566E+00  0.00000E+00 -0.15772E+00  0.10365E+00  0.00000E+00 -0.16504E+00  0.10188E+00  0.00000E+00 -0.17229E+00  0.10036E+00  0.00000E+00 -0.17953E+00  0.99037E-01  0.00000E+00 -0.18680E+00  0.97943E-01  0.00000E+00 -0.19388E+00
          0.97012E-01  0.00000E+00 -0.20137E+00  0.96280E-01  0.00000E+00 -0.20810E+00  0.95673E-01  0.00000E+00 -0.21593E+00  0.95149E-01  0.00000E+00 -0.22260E+00  0.94822E-01  0.00000E+00 -0.22919E+00  0.93871E-01  0.00000E+00 -0.24027E+00
          0.15427E+00  0.00000E+00 -0.27810E-02  0.18682E+00  0.00000E+00 -0.10205E-01  0.19555E+00  0.00000E+00 -0.19572E-01  0.19284E+00  0.00000E+00 -0.31004E-01  0.18753E+00  0.00000E+00 -0.41702E-01  0.17931E+00  0.00000E+00 -0.51774E-01
          0.17108E+00  0.00000E+00 -0.61615E-01  0.16331E+00  0.00000E+00 -0.70819E-01  0.15622E+00  0.00000E+00 -0.79709E-01  0.14988E+00  0.00000E+00 -0.88313E-01  0.14420E+00  0.00000E+00 -0.96647E-01  0.13912E+00  0.00000E+00 -0.10479E+00
          0.13456E+00  0.00000E+00 -0.11275E+00  0.13045E+00  0.00000E+00 -0.12056E+00  0.12676E+00  0.00000E+00 -0.12825E+00  0.12342E+00  0.00000E+00 -0.13583E+00  0.12041E+00  0.00000E+00 -0.14332E+00  0.11770E+00  0.00000E+00 -0.15076E+00
          0.11528E+00  0.00000E+00 -0.15813E+00  0.11313E+00  0.00000E+00 -0.16549E+00  0.11124E+00  0.00000E+00 -0.17278E+00  0.10960E+00  0.00000E+00 -0.18008E+00  0.10819E+00  0.00000E+00 -0.18741E+00  0.10701E+00  0.00000E+00 -0.19456E+00
          0.10601E+00  0.00000E+00 -0.20212E+00  0.10522E+00  0.00000E+00 -0.20892E+00  0.10455E+00  0.00000E+00 -0.21687E+00  0.10397E+00  0.00000E+00 -0.22358E+00  0.10360E+00  0.00000E+00 -0.23027E+00  0.10253E+00  0.00000E+00 -0.24151E+00
          0.16403E+00  0.00000E+00 -0.26321E-02  0.20091E+00  0.00000E+00 -0.10097E-01  0.21215E+00  0.00000E+00 -0.19354E-01  0.20945E+00  0.00000E+00 -0.30906E-01  0.20364E+00  0.00000E+00 -0.41750E-01  0.19444E+00  0.00000E+00 -0.51876E-01
          0.18534E+00  0.00000E+00 -0.61762E-01  0.17683E+00  0.00000E+00 -0.70987E-01  0.16912E+00  0.00000E+00 -0.79890E-01  0.16226E+00  0.00000E+00 -0.88514E-01  0.15614E+00  0.00000E+00 -0.96869E-01  0.15067E+00  0.00000E+00 -0.10504E+00
          0.14576E+00  0.00000E+00 -0.11304E+00  0.14136E+00  0.00000E+00 -0.12088E+00  0.13739E+00  0.00000E+00 -0.12860E+00  0.13382E+00  0.00000E+00 -0.13622E+00  0.13060E+00  0.00000E+00 -0.14375E+00  0.12772E+00  0.00000E+00 -0.15123E+00
          0.12513E+00  0.00000E+00 -0.15864E+00  0.12284E+00  0.00000E+00 -0.16605E+00  0.12082E+00  0.00000E+00 -0.17339E+00  0.11907E+00  0.00000E+00 -0.18076E+00  0.11756E+00  0.00000E+00 -0.18815E+00  0.11630E+00  0.00000E+00 -0.19537E+00
          0.11522E+00  0.00000E+00 -0.20302E+00  0.11436E+00  0.00000E+00 -0.20988E+00  0.11362E+00  0.00000E+00 -0.21796E+00  0.11298E+00  0.00000E+00 -0.22471E+00  0.11255E+00  0.00000E+00 -0.23152E+00  0.11136E+00  0.00000E+00 -0.24293E+00
          0.17382E+00  0.00000E+00 -0.24702E-02  0.21497E+00  0.00000E+00 -0.10015E-01  0.22918E+00  0.00000E+00 -0.19098E-01  0.22652E+00  0.00000E+00 -0.30797E-01  0.22021E+00  0.00000E+00 -0.41795E-01  0.20992E+00  0.00000E+00 -0.51963E-01
          0.19990E+00  0.00000E+00 -0.61897E-01  0.19061E+00  0.00000E+00 -0.71149E-01  0.18228E+00  0.00000E+00 -0.80072E-01  0.17490E+00  0.00000E+00 -0.88727E-01  0.16832E+00  0.00000E+00 -0.97112E-01  0.16247E+00  0.00000E+00 -0.10532E+00
          0.15722E+00  0.00000E+00 -0.11336E+00  0.15250E+00  0.00000E+00 -0.12125E+00  0.14826E+00  0.00000E+00 -0.12902E+00  0.14445E+00  0.00000E+00 -0.13669E+00  0.14102E+00  0.00000E+00 -0.14427E+00  0.13794E+00  0.00000E+00 -0.15180E+00
          0.13520E+00  0.00000E+00 -0.15925E+00  0.13276E+00  0.00000E+00 -0.16672E+00  0.13061E+00  0.00000E+00 -0.17412E+00  0.12875E+00  0.00000E+00 -0.18156E+00  0.12714E+00  0.00000E+00 -0.18902E+00  0.12579E+00  0.00000E+00 -0.19632E+00
          0.12463E+00  0.00000E+00 -0.20407E+00  0.12371E+00  0.00000E+00 -0.21099E+00  0.12290E+00  0.00000E+00 -0.21921E+00  0.12218E+00  0.00000E+00 -0.22602E+00  0.12169E+00  0.00000E+00 -0.23295E+00  0.12037E+00  0.00000E+00 -0.24454E+00
          0.18373E+00  0.00000E+00 -0.23181E-02  0.22894E+00  0.00000E+00 -0.99741E-02  0.24667E+00  0.00000E+00 -0.18846E-01  0.24409E+00  0.00000E+00 -0.30695E-01  0.23725E+00  0.00000E+00 -0.41826E-01  0.22578E+00  0.00000E+00 -0.52027E-01