<?xml version="1.0"?>
<VTKFile type="UnstructuredGrid" version="0.1" byte_order="LittleEndian" compressor="vtkZLibDataCompressor">
<UnstructuredGrid>
  <Piece NumberOfPoints="1800"        NumberOfCells="1"      >
    <Points>
      <DataArray type="Float32" NumberOfComponents="3" format="ascii" >
        0.29266E-01  0.00000E+00  0.24944E-02  0.17308E-01  0.00000E+00  0.39180E-02  0.74085E-02  0.00000E+00  0.75129E-02  0.95526E-02  0.00000E+00  0.14604E-01  0.79560E-02  0.00000E+00  0.20309E-01  0.77939E-02  0.00000E+00  0.27013E-01
        0.76568E-02  0.00000E+00  0.33954E-01  0.84855E-02  0.00000E+00  0.40454E-01  0.86346E-02  0.00000E+00  0.46762E-01  0.90810E-02  0.00000E+00  0.52789E-01  0.92069E-02  0.00000E+00  0.58577E-01  0.94444E-02  0.00000E+00  0.64086E-01
        0.94008E-02  0.00000E+00  0.69530E-01  0.93413E-02  0.00000E+00  0.75002E-01  0.91666E-02  0.00000E+00  0.80520E-01  0.90019E-02  0.00000E+00  0.86069E-01  0.88211E-02  0.00000E+00  0.91683E-01  0.86339E-02  0.00000E+00  0.97360E-01
        0.84449E-02  0.00000E+00  0.10311E+00  0.82524E-02  0.00000E+00  0.10893E+00  0.80641E-02  0.00000E+00  0.11484E+00  0.78837E-02  0.00000E+00  0.12084E+00  0.76978E-02  0.00000E+00  0.12691E+00  0.75314E-02  0.00000E+00  0.13310E+00
        0.74168E-02  0.00000E+00  0.13942E+00  0.71769E-02  0.00000E+00  0.14571E+00  0.70281E-02  0.00000E+00  0.15218E+00  0.75239E-02  0.00000E+00  0.15915E+00  0.64439E-02  0.00000E+00  0.16556E+00  0.64533E-02  0.00000E+00  0.17050E+00
        0.41536E-01  0.00000E+00  0.38400E-02  0.24132E-01  0.00000E+00  0.11281E-01  0.36976E-01  0.00000E+00  0.12506E-01  0.30086E-01  0.00000E+00  0.19053E-01  0.19668E-01  0.00000E+00  0.20184E-01  0.29502E-01  0.00000E+00  0.27801E-01
        0.19463E-01  0.00000E+00  0.30828E-01  0.28874E-01  0.00000E+00  0.36795E-01  0.20074E-01  0.00000E+00  0.41701E-01  0.29136E-01  0.00000E+00  0.47041E-01  0.21855E-01  0.00000E+00  0.52784E-01  0.27794E-01  0.00000E+00  0.58490E-01
        0.24596E-01  0.00000E+00  0.64587E-01  0.26024E-01  0.00000E+00  0.70765E-01  0.25231E-01  0.00000E+00  0.76958E-01  0.25216E-01  0.00000E+00  0.83189E-01  0.24872E-01  0.00000E+00  0.89399E-01  0.24606E-01  0.00000E+00  0.95651E-01
        0.24295E-01  0.00000E+00  0.10191E+00  0.23993E-01  0.00000E+00  0.10816E+00  0.23680E-01  0.00000E+00  0.11444E+00  0.23366E-01  0.00000E+00  0.12078E+00  0.23056E-01  0.00000E+00  0.12707E+00  0.22734E-01  0.00000E+00  0.13336E+00
        0.22407E-01  0.00000E+00  0.13996E+00  0.22231E-01  0.00000E+00  0.14628E+00  0.21575E-01  0.00000E+00  0.15229E+00  0.21951E-01  0.00000E+00  0.16002E+00  0.20960E-01  0.00000E+00  0.16590E+00  0.21174E-01  0.00000E+00  0.17077E+00
        0.57953E-01  0.00000E+00  0.34853E-02  0.48820E-01  0.00000E+00  0.10271E-01  0.61726E-01  0.00000E+00  0.12751E-01  0.52559E-01  0.00000E+00  0.18483E-01  0.41761E-01  0.00000E+00  0.21551E-01  0.51310E-01  0.00000E+00  0.27253E-01
        0.39998E-01  0.00000E+00  0.30866E-01  0.49116E-01  0.00000E+00  0.36667E-01  0.38717E-01  0.00000E+00  0.40937E-01  0.47634E-01  0.00000E+00  0.46862E-01  0.38559E-01  0.00000E+00  0.51887E-01  0.45102E-01  0.00000E+00  0.57908E-01
        0.40217E-01  0.00000E+00  0.63736E-01  0.42046E-01  0.00000E+00  0.70131E-01  0.41091E-01  0.00000E+00  0.76393E-01  0.41012E-01  0.00000E+00  0.82767E-01  0.40620E-01  0.00000E+00  0.89147E-01  0.40348E-01  0.00000E+00  0.95532E-01
        0.40006E-01  0.00000E+00  0.10194E+00  0.39681E-01  0.00000E+00  0.10835E+00  0.39331E-01  0.00000E+00  0.11475E+00  0.38980E-01  0.00000E+00  0.12123E+00  0.38598E-01  0.00000E+00  0.12764E+00  0.38246E-01  0.00000E+00  0.13400E+00
        0.37824E-01  0.00000E+00  0.14070E+00  0.37472E-01  0.00000E+00  0.14707E+00  0.37084E-01  0.00000E+00  0.15311E+00  0.36844E-01  0.00000E+00  0.16084E+00  0.36167E-01  0.00000E+00  0.16645E+00  0.36141E-01  0.00000E+00  0.17138E+00
        0.83639E-01  0.00000E+00  0.32817E-02  0.70165E-01  0.00000E+00  0.68986E-02  0.77888E-01  0.00000E+00  0.12491E-01  0.75694E-01  0.00000E+00  0.20933E-01  0.64312E-01  0.00000E+00  0.21390E-01  0.71645E-01  0.00000E+00  0.28787E-01
        0.60645E-01  0.00000E+00  0.31073E-01  0.69053E-01  0.00000E+00  0.38204E-01  0.58265E-01  0.00000E+00  0.41208E-01  0.65810E-01  0.00000E+00  0.48073E-01  0.56248E-01  0.00000E+00  0.52248E-01  0.61728E-01  0.00000E+00  0.58929E-01
        0.56512E-01  0.00000E+00  0.64454E-01  0.58125E-01  0.00000E+00  0.70852E-01  0.56819E-01  0.00000E+00  0.77077E-01  0.56790E-01  0.00000E+00  0.83444E-01  0.56319E-01  0.00000E+00  0.89802E-01  0.56002E-01  0.00000E+00  0.96182E-01
        0.55622E-01  0.00000E+00  0.10259E+00  0.55272E-01  0.00000E+00  0.10899E+00  0.54885E-01  0.00000E+00  0.11539E+00  0.54524E-01  0.00000E+00  0.12187E+00  0.54110E-01  0.00000E+00  0.12827E+00  0.53738E-01  0.00000E+00  0.13463E+00
        0.53331E-01  0.00000E+00  0.14130E+00  0.52933E-01  0.00000E+00  0.14759E+00  0.52654E-01  0.00000E+00  0.15360E+00  0.52218E-01  0.00000E+00  0.16131E+00  0.52263E-01  0.00000E+00  0.16673E+00  0.51970E-01  0.00000E+00  0.17154E+00
        0.10567E+00  0.00000E+00  0.35457E-02  0.94912E-01  0.00000E+00  0.77249E-02  0.88557E-01  0.00000E+00  0.14759E-01  0.97720E-01  0.00000E+00  0.20551E-01  0.86754E-01  0.00000E+00  0.23990E-01  0.95241E-01  0.00000E+00  0.29956E-01
        0.81932E-01  0.00000E+00  0.32004E-01  0.88580E-01  0.00000E+00  0.38916E-01  0.78000E-01  0.00000E+00  0.41984E-01  0.83238E-01  0.00000E+00  0.49360E-01  0.74068E-01  0.00000E+00  0.53322E-01  0.77699E-01  0.00000E+00  0.60389E-01
        0.73020E-01  0.00000E+00  0.65827E-01  0.74083E-01  0.00000E+00  0.72250E-01  0.72822E-01  0.00000E+00  0.78404E-01  0.72654E-01  0.00000E+00  0.84671E-01  0.72149E-01  0.00000E+00  0.90938E-01  0.71800E-01  0.00000E+00  0.97231E-01
        0.71394E-01  0.00000E+00  0.10354E+00  0.71023E-01  0.00000E+00  0.10984E+00  0.70619E-01  0.00000E+00  0.11615E+00  0.70243E-01  0.00000E+00  0.12253E+00  0.69834E-01  0.00000E+00  0.12882E+00  0.69446E-01  0.00000E+00  0.13509E+00
        0.69055E-01  0.00000E+00  0.14168E+00  0.68695E-01  0.00000E+00  0.14785E+00  0.68317E-01  0.00000E+00  0.15380E+00  0.68046E-01  0.00000E+00  0.16143E+00  0.67662E-01  0.00000E+00  0.16672E+00  0.67619E-01  0.00000E+00  0.17157E+00
        0.12231E+00  0.00000E+00  0.36659E-02  0.11523E+00  0.00000E+00  0.10025E-01  0.10499E+00  0.00000E+00  0.13719E-01  0.12066E+00  0.00000E+00  0.18802E-01  0.11041E+00  0.00000E+00  0.21684E-01  0.11783E+00  0.00000E+00  0.28479E-01
        0.10608E+00  0.00000E+00  0.29479E-01  0.10607E+00  0.00000E+00  0.38143E-01  0.97359E-01  0.00000E+00  0.41508E-01  0.98844E-01  0.00000E+00  0.49781E-01  0.91809E-01  0.00000E+00  0.54303E-01  0.92676E-01  0.00000E+00  0.61517E-01
        0.89917E-01  0.00000E+00  0.67415E-01  0.89998E-01  0.00000E+00  0.73638E-01  0.89096E-01  0.00000E+00  0.79752E-01  0.88786E-01  0.00000E+00  0.85942E-01  0.88278E-01  0.00000E+00  0.92096E-01  0.87896E-01  0.00000E+00  0.98282E-01
        0.87455E-01  0.00000E+00  0.10449E+00  0.87067E-01  0.00000E+00  0.11068E+00  0.86623E-01  0.00000E+00  0.11690E+00  0.86238E-01  0.00000E+00  0.12319E+00  0.85804E-01  0.00000E+00  0.12936E+00  0.85382E-01  0.00000E+00  0.13557E+00
        0.85010E-01  0.00000E+00  0.14209E+00  0.84599E-01  0.00000E+00  0.14812E+00  0.84250E-01  0.00000E+00  0.15403E+00  0.83995E-01  0.00000E+00  0.16167E+00  0.83854E-01  0.00000E+00  0.16677E+00  0.83676E-01  0.00000E+00  0.17150E+00
        0.13652E+00  0.00000E+00  0.36032E-02  0.14397E+00  0.00000E+00  0.10036E-01  0.12934E+00  0.00000E+00  0.11611E-01  0.14242E+00  0.00000E+00  0.18575E-01  0.13146E+00  0.00000E+00  0.20130E-01  0.13670E+00  0.00000E+00  0.27639E-01
        0.12764E+00  0.00000E+00  0.30974E-01  0.12292E+00  0.00000E+00  0.38157E-01  0.11512E+00  0.00000E+00  0.41789E-01  0.11233E+00  0.00000E+00  0.49241E-01  0.10993E+00  0.00000E+00  0.55738E-01  0.10694E+00  0.00000E+00  0.61772E-01
        0.10742E+00  0.00000E+00  0.68168E-01  0.10610E+00  0.00000E+00  0.74163E-01  0.10573E+00  0.00000E+00  0.80299E-01  0.10524E+00  0.00000E+00  0.86427E-01  0.10474E+00  0.00000E+00  0.92536E-01  0.10432E+00  0.00000E+00  0.98669E-01
        0.10385E+00  0.00000E+00  0.10482E+00  0.10343E+00  0.00000E+00  0.11095E+00  0.10295E+00  0.00000E+00  0.11711E+00  0.10253E+00  0.00000E+00  0.12335E+00  0.10208E+00  0.00000E+00  0.12945E+00  0.10163E+00  0.00000E+00  0.13560E+00
        0.10123E+00  0.00000E+00  0.14207E+00  0.10083E+00  0.00000E+00  0.14801E+00  0.10042E+00  0.00000E+00  0.15388E+00  0.10019E+00  0.00000E+00  0.16147E+00  0.99823E-01  0.00000E+00  0.16650E+00  0.99695E-01  0.00000E+00  0.17123E+00
        0.15290E+00  0.00000E+00  0.35402E-02  0.16194E+00  0.00000E+00  0.10158E-01  0.15417E+00  0.00000E+00  0.15289E-01  0.17016E+00  0.00000E+00  0.17611E-01  0.16030E+00  0.00000E+00  0.23472E-01  0.15031E+00  0.00000E+00  0.24885E-01
        0.14713E+00  0.00000E+00  0.33419E-01  0.13895E+00  0.00000E+00  0.37688E-01  0.13451E+00  0.00000E+00  0.44701E-01  0.12705E+00  0.00000E+00  0.48294E-01  0.12675E+00  0.00000E+00  0.55450E-01  0.12338E+00  0.00000E+00  0.61028E-01
        0.12393E+00  0.00000E+00  0.67394E-01  0.12262E+00  0.00000E+00  0.73542E-01  0.12231E+00  0.00000E+00  0.79697E-01  0.12182E+00  0.00000E+00  0.85857E-01  0.12131E+00  0.00000E+00  0.91998E-01  0.12085E+00  0.00000E+00  0.98158E-01
        0.12036E+00  0.00000E+00  0.10432E+00  0.11991E+00  0.00000E+00  0.11047E+00  0.11940E+00  0.00000E+00  0.11664E+00  0.11896E+00  0.00000E+00  0.12288E+00  0.11848E+00  0.00000E+00  0.12898E+00  0.11799E+00  0.00000E+00  0.13513E+00
        0.11759E+00  0.00000E+00  0.14160E+00  0.11715E+00  0.00000E+00  0.14752E+00  0.11670E+00  0.00000E+00  0.15340E+00  0.11647E+00  0.00000E+00  0.16100E+00  0.11612E+00  0.00000E+00  0.16596E+00  0.11592E+00  0.00000E+00  0.17066E+00
[...]
<PointData>
      <DataArray type="Float32" Name="Velocity vectors"  NumberOfComponents="3"  format="ascii" >
          0.93768E-01  0.00000E+00  0.13831E-03  0.81550E-01  0.00000E+00 -0.39580E-02  0.23820E-01  0.00000E+00 -0.45842E-01  0.30853E-01  0.00000E+00 -0.53248E-01 -0.21777E-02  0.00000E+00 -0.63008E-01  0.67284E-02  0.00000E+00 -0.67013E-01
          0.16171E-02  0.00000E+00 -0.72260E-01  0.25223E-02  0.00000E+00 -0.73621E-01 -0.30481E-02  0.00000E+00 -0.72337E-01  0.97135E-03  0.00000E+00 -0.68489E-01  0.31462E-02  0.00000E+00 -0.65892E-01  0.11021E-01  0.00000E+00 -0.67179E-01
          0.14438E-01  0.00000E+00 -0.71778E-01  0.17237E-01  0.00000E+00 -0.78151E-01  0.17050E-01  0.00000E+00 -0.85383E-01  0.17768E-01  0.00000E+00 -0.93037E-01  0.17875E-01  0.00000E+00 -0.10126E+00  0.17821E-01  0.00000E+00 -0.10997E+00
          0.17396E-01  0.00000E+00 -0.11899E+00  0.16719E-01  0.00000E+00 -0.12833E+00  0.15901E-01  0.00000E+00 -0.13783E+00  0.14714E-01  0.00000E+00 -0.14760E+00  0.13299E-01  0.00000E+00 -0.15731E+00  0.12310E-01  0.00000E+00 -0.16641E+00
          0.10771E-01  0.00000E+00 -0.17577E+00  0.81262E-02  0.00000E+00 -0.18548E+00  0.87796E-02  0.00000E+00 -0.19254E+00  0.94439E-02  0.00000E+00 -0.19889E+00  0.25759E-02  0.00000E+00 -0.20908E+00  0.51251E-02  0.00000E+00 -0.21930E+00
          0.95855E-01  0.00000E+00 -0.81763E-03  0.51318E-01  0.00000E+00 -0.45025E-02  0.76715E-01  0.00000E+00 -0.10853E-01  0.49192E-01  0.00000E+00 -0.28407E-01  0.20106E-01  0.00000E+00 -0.29795E-01  0.33968E-01  0.00000E+00 -0.39076E-01
          0.14675E-01  0.00000E+00 -0.59175E-01  0.19967E-01  0.00000E+00 -0.50550E-01  0.16963E-02  0.00000E+00 -0.70655E-01  0.24156E-01  0.00000E+00 -0.71712E-01 -0.22703E-01  0.00000E+00 -0.84223E-01  0.56161E-01  0.00000E+00 -0.10352E+00
         -0.90176E-02  0.00000E+00 -0.10615E+00  0.45638E-01  0.00000E+00 -0.11462E+00  0.28496E-01  0.00000E+00 -0.12226E+00  0.38628E-01  0.00000E+00 -0.12714E+00  0.36105E-01  0.00000E+00 -0.13334E+00  0.37043E-01  0.00000E+00 -0.13916E+00
          0.36392E-01  0.00000E+00 -0.14489E+00  0.35843E-01  0.00000E+00 -0.15090E+00  0.34864E-01  0.00000E+00 -0.15658E+00  0.33681E-01  0.00000E+00 -0.16248E+00  0.32126E-01  0.00000E+00 -0.16964E+00  0.30550E-01  0.00000E+00 -0.17530E+00
          0.28526E-01  0.00000E+00 -0.18087E+00  0.27559E-01  0.00000E+00 -0.19091E+00  0.23211E-01  0.00000E+00 -0.19619E+00  0.24676E-01  0.00000E+00 -0.19899E+00  0.18716E-01  0.00000E+00 -0.21281E+00  0.19851E-01  0.00000E+00 -0.22062E+00
          0.99069E-01  0.00000E+00 -0.78384E-03  0.94157E-01  0.00000E+00 -0.43495E-02  0.10966E+00  0.00000E+00 -0.12147E-01  0.96865E-01  0.00000E+00 -0.15812E-01  0.66784E-01  0.00000E+00 -0.30333E-01  0.66712E-01  0.00000E+00 -0.30525E-01
          0.42548E-01  0.00000E+00 -0.47368E-01  0.52063E-01  0.00000E+00 -0.50290E-01  0.36335E-01  0.00000E+00 -0.65419E-01  0.56770E-01  0.00000E+00 -0.70688E-01  0.18675E-01  0.00000E+00 -0.83023E-01  0.94008E-01  0.00000E+00 -0.96107E-01
          0.78986E-02  0.00000E+00 -0.11381E+00  0.71015E-01  0.00000E+00 -0.11974E+00  0.45561E-01  0.00000E+00 -0.13035E+00  0.54582E-01  0.00000E+00 -0.13663E+00  0.51437E-01  0.00000E+00 -0.14262E+00  0.52429E-01  0.00000E+00 -0.14889E+00
          0.51418E-01  0.00000E+00 -0.15475E+00  0.50966E-01  0.00000E+00 -0.16068E+00  0.50043E-01  0.00000E+00 -0.16611E+00  0.49221E-01  0.00000E+00 -0.17163E+00  0.47888E-01  0.00000E+00 -0.17840E+00  0.46834E-01  0.00000E+00 -0.18324E+00
          0.44827E-01  0.00000E+00 -0.18825E+00  0.43461E-01  0.00000E+00 -0.19777E+00  0.41501E-01  0.00000E+00 -0.20093E+00  0.40047E-01  0.00000E+00 -0.20468E+00  0.35967E-01  0.00000E+00 -0.21866E+00  0.36412E-01  0.00000E+00 -0.22471E+00
          0.13373E+00  0.00000E+00  0.15231E-02  0.11412E+00  0.00000E+00 -0.94570E-02  0.12272E+00  0.00000E+00 -0.16513E-01  0.11401E+00  0.00000E+00 -0.21446E-01  0.10466E+00  0.00000E+00 -0.18133E-01  0.10307E+00  0.00000E+00 -0.26451E-01
          0.80205E-01  0.00000E+00 -0.41393E-01  0.87783E-01  0.00000E+00 -0.45621E-01  0.70024E-01  0.00000E+00 -0.60828E-01  0.99349E-01  0.00000E+00 -0.66734E-01  0.58560E-01  0.00000E+00 -0.85710E-01  0.13357E+00  0.00000E+00 -0.92434E-01
          0.38231E-01  0.00000E+00 -0.11838E+00  0.96950E-01  0.00000E+00 -0.12011E+00  0.62711E-01  0.00000E+00 -0.13257E+00  0.74244E-01  0.00000E+00 -0.13833E+00  0.68273E-01  0.00000E+00 -0.14457E+00  0.68412E-01  0.00000E+00 -0.15094E+00
          0.66744E-01  0.00000E+00 -0.15686E+00  0.66008E-01  0.00000E+00 -0.16285E+00  0.64576E-01  0.00000E+00 -0.16834E+00  0.63763E-01  0.00000E+00 -0.17391E+00  0.62092E-01  0.00000E+00 -0.18064E+00  0.60979E-01  0.00000E+00 -0.18510E+00
          0.59438E-01  0.00000E+00 -0.19016E+00  0.57803E-01  0.00000E+00 -0.19966E+00  0.56945E-01  0.00000E+00 -0.20189E+00  0.55234E-01  0.00000E+00 -0.20573E+00  0.56275E-01  0.00000E+00 -0.21890E+00  0.55473E-01  0.00000E+00 -0.22488E+00
          0.16883E+00  0.00000E+00 -0.33159E-02  0.14617E+00  0.00000E+00 -0.10309E-01  0.12978E+00  0.00000E+00 -0.17402E-01  0.14229E+00  0.00000E+00 -0.29269E-01  0.12528E+00  0.00000E+00 -0.25783E-01  0.13929E+00  0.00000E+00 -0.39354E-01
          0.11514E+00  0.00000E+00 -0.40450E-01  0.13409E+00  0.00000E+00 -0.50695E-01  0.11101E+00  0.00000E+00 -0.62947E-01  0.14822E+00  0.00000E+00 -0.71138E-01  0.99539E-01  0.00000E+00 -0.92687E-01  0.16464E+00  0.00000E+00 -0.92373E-01
          0.71086E-01  0.00000E+00 -0.12140E+00  0.11544E+00  0.00000E+00 -0.11852E+00  0.81882E-01  0.00000E+00 -0.12968E+00  0.89168E-01  0.00000E+00 -0.13488E+00  0.83189E-01  0.00000E+00 -0.14063E+00  0.83088E-01  0.00000E+00 -0.14610E+00
          0.81195E-01  0.00000E+00 -0.15180E+00  0.80423E-01  0.00000E+00 -0.15776E+00  0.79018E-01  0.00000E+00 -0.16309E+00  0.78279E-01  0.00000E+00 -0.16887E+00  0.76964E-01  0.00000E+00 -0.17600E+00  0.75985E-01  0.00000E+00 -0.18058E+00
          0.75056E-01  0.00000E+00 -0.18614E+00  0.74312E-01  0.00000E+00 -0.19637E+00  0.73187E-01  0.00000E+00 -0.19865E+00  0.73064E-01  0.00000E+00 -0.20292E+00  0.71319E-01  0.00000E+00 -0.21691E+00  0.71959E-01  0.00000E+00 -0.22274E+00
          0.19469E+00  0.00000E+00 -0.58483E-02  0.18072E+00  0.00000E+00 -0.11269E-01  0.14839E+00  0.00000E+00 -0.20631E-01  0.19555E+00  0.00000E+00 -0.35064E-01  0.17906E+00  0.00000E+00 -0.46414E-01  0.18157E+00  0.00000E+00 -0.52674E-01
          0.15496E+00  0.00000E+00 -0.66442E-01  0.16737E+00  0.00000E+00 -0.68681E-01  0.15338E+00  0.00000E+00 -0.81010E-01  0.19122E+00  0.00000E+00 -0.74601E-01  0.13204E+00  0.00000E+00 -0.11154E+00  0.16723E+00  0.00000E+00 -0.97041E-01
          0.10024E+00  0.00000E+00 -0.10994E+00  0.12053E+00  0.00000E+00 -0.11040E+00  0.10066E+00  0.00000E+00 -0.11911E+00  0.10297E+00  0.00000E+00 -0.12272E+00  0.98292E-01  0.00000E+00 -0.12928E+00  0.98288E-01  0.00000E+00 -0.13510E+00
          0.96577E-01  0.00000E+00 -0.14096E+00  0.96498E-01  0.00000E+00 -0.14747E+00  0.95209E-01  0.00000E+00 -0.15330E+00  0.95171E-01  0.00000E+00 -0.15975E+00  0.94165E-01  0.00000E+00 -0.16769E+00  0.93378E-01  0.00000E+00 -0.17254E+00
          0.93204E-01  0.00000E+00 -0.17883E+00  0.92237E-01  0.00000E+00 -0.19031E+00  0.91658E-01  0.00000E+00 -0.19198E+00  0.92071E-01  0.00000E+00 -0.19664E+00  0.92302E-01  0.00000E+00 -0.21186E+00  0.92223E-01  0.00000E+00 -0.21789E+00
          0.22847E+00  0.00000E+00 -0.53241E-02  0.24340E+00  0.00000E+00 -0.19673E-01  0.21399E+00  0.00000E+00 -0.25472E-01  0.22766E+00  0.00000E+00 -0.27613E-01  0.21121E+00  0.00000E+00 -0.32703E-01  0.24801E+00  0.00000E+00 -0.46211E-01
          0.21193E+00  0.00000E+00 -0.77520E-01  0.21262E+00  0.00000E+00 -0.75345E-01  0.18078E+00  0.00000E+00 -0.10561E+00  0.18594E+00  0.00000E+00 -0.97146E-01  0.17942E+00  0.00000E+00 -0.94418E-01  0.12075E+00  0.00000E+00 -0.10313E+00
          0.15465E+00  0.00000E+00 -0.95815E-01  0.11812E+00  0.00000E+00 -0.10706E+00  0.12233E+00  0.00000E+00 -0.11167E+00  0.11810E+00  0.00000E+00 -0.11619E+00  0.11631E+00  0.00000E+00 -0.12249E+00  0.11637E+00  0.00000E+00 -0.12831E+00
          0.11538E+00  0.00000E+00 -0.13439E+00  0.11584E+00  0.00000E+00 -0.14104E+00  0.11481E+00  0.00000E+00 -0.14694E+00  0.11518E+00  0.00000E+00 -0.15372E+00  0.11455E+00  0.00000E+00 -0.16192E+00  0.11378E+00  0.00000E+00 -0.16680E+00
          0.11380E+00  0.00000E+00 -0.17341E+00  0.11336E+00  0.00000E+00 -0.18546E+00  0.11219E+00  0.00000E+00 -0.18706E+00  0.11303E+00  0.00000E+00 -0.19180E+00  0.11168E+00  0.00000E+00 -0.20768E+00  0.11202E+00  0.00000E+00 -0.21400E+00
          0.26912E+00  0.00000E+00 -0.35005E-02  0.28375E+00  0.00000E+00 -0.11537E-01  0.25319E+00  0.00000E+00 -0.32596E-01  0.28588E+00  0.00000E+00 -0.35161E-01  0.27364E+00  0.00000E+00 -0.38002E-01  0.25856E+00  0.00000E+00 -0.53442E-01
          0.24738E+00  0.00000E+00 -0.53426E-01  0.21605E+00  0.00000E+00 -0.70251E-01  0.21216E+00  0.00000E+00 -0.61510E-01  0.17184E+00  0.00000E+00 -0.10392E+00  0.20074E+00  0.00000E+00 -0.88651E-01  0.12615E+00  0.00000E+00 -0.10850E+00
          0.16350E+00  0.00000E+00 -0.10506E+00  0.13213E+00  0.00000E+00 -0.11273E+00  0.13842E+00  0.00000E+00 -0.11584E+00  0.13550E+00  0.00000E+00 -0.12104E+00  0.13417E+00  0.00000E+00 -0.12719E+00  0.13461E+00  0.00000E+00 -0.13235E+00
          0.13431E+00  0.00000E+00 -0.13836E+00  0.13533E+00  0.00000E+00 -0.14464E+00  0.13475E+00  0.00000E+00 -0.15011E+00  0.13569E+00  0.00000E+00 -0.15656E+00  0.13561E+00  0.00000E+00 -0.16431E+00  0.13494E+00  0.00000E+00 -0.16878E+00
          0.13557E+00  0.00000E+00 -0.17515E+00  0.13522E+00  0.00000E+00 -0.18695E+00  0.13390E+00  0.00000E+00 -0.18792E+00  0.13490E+00  0.00000E+00 -0.19274E+00  0.13390E+00  0.00000E+00 -0.20871E+00  0.13372E+00  0.00000E+00 -0.21451E+00
          0.29547E+00  0.00000E+00 -0.48159E-02  0.31559E+00  0.00000E+00 -0.15327E-01  0.32454E+00  0.00000E+00 -0.16297E-01  0.33322E+00  0.00000E+00 -0.23194E-01  0.30933E+00  0.00000E+00 -0.51546E-01  0.29338E+00  0.00000E+00 -0.48791E-01
          0.27804E+00  0.00000E+00 -0.56191E-01  0.26277E+00  0.00000E+00 -0.82526E-01  0.24455E+00  0.00000E+00 -0.73919E-01  0.22080E+00  0.00000E+00 -0.10670E+00  0.22297E+00  0.00000E+00 -0.95503E-01  0.15024E+00  0.00000E+00 -0.11955E+00
          0.16234E+00  0.00000E+00 -0.11058E+00  0.15314E+00  0.00000E+00 -0.11560E+00  0.15135E+00  0.00000E+00 -0.12078E+00  0.15209E+00  0.00000E+00 -0.12584E+00  0.15116E+00  0.00000E+00 -0.13172E+00  0.15211E+00  0.00000E+00 -0.13716E+00
          0.15212E+00  0.00000E+00 -0.14322E+00  0.15340E+00  0.00000E+00 -0.14940E+00  0.15320E+00  0.00000E+00 -0.15478E+00  0.15446E+00  0.00000E+00 -0.16105E+00  0.15466E+00  0.00000E+00 -0.16845E+00  0.15444E+00  0.00000E+00 -0.17263E+00
          0.15535E+00  0.00000E+00 -0.17876E+00  0.15523E+00  0.00000E+00 -0.19000E+00  0.15411E+00  0.00000E+00 -0.19062E+00  0.15561E+00  0.00000E+00 -0.19547E+00  0.15419E+00  0.00000E+00 -0.21075E+00  0.15427E+00  0.00000E+00 -0.21619E+00
          0.32737E+00  0.00000E+00 -0.24713E-02  0.34620E+00  0.00000E+00 -0.15671E-01  0.36431E+00  0.00000E+00 -0.11029E-01  0.33926E+00  0.00000E+00 -0.30154E-01  0.37041E+00  0.00000E+00 -0.47448E-01  0.35223E+00  0.00000E+00 -0.43257E-01
          0.31685E+00  0.00000E+00 -0.63341E-01  0.30052E+00  0.00000E+00 -0.77306E-01  0.28220E+00  0.00000E+00 -0.75041E-01  0.26011E+00  0.00000E+00 -0.96588E-01  0.22883E+00  0.00000E+00 -0.10513E+00  0.20356E+00  0.00000E+00 -0.99120E-01
          0.14041E+00  0.00000E+00 -0.11697E+00  0.17492E+00  0.00000E+00 -0.11753E+00  0.16425E+00  0.00000E+00 -0.12251E+00  0.16887E+00  0.00000E+00 -0.12783E+00  0.16838E+00  0.00000E+00 -0.13337E+00  0.16978E+00  0.00000E+00 -0.13860E+00
          0.16985E+00  0.00000E+00 -0.14461E+00  0.17151E+00  0.00000E+00 -0.15068E+00  0.17143E+00  0.00000E+00 -0.15606E+00  0.17298E+00  0.00000E+00 -0.16236E+00  0.17353E+00  0.00000E+00 -0.16975E+00  0.17348E+00  0.00000E+00 -0.17397E+00
          0.17488E+00  0.00000E+00 -0.18013E+00  0.17512E+00  0.00000E+00 -0.19138E+00  0.17399E+00  0.00000E+00 -0.19201E+00  0.17610E+00  0.00000E+00 -0.19682E+00  0.17473E+00  0.00000E+00 -0.21201E+00  0.17483E+00  0.00000E+00 -0.21745E+00
          0.35989E+00  0.00000E+00 -0.95889E-03  0.37678E+00  0.00000E+00 -0.15699E-01  0.39773E+00  0.00000E+00 -0.20492E-01  0.38091E+00  0.00000E+00 -0.30293E-01  0.39900E+00  0.00000E+00 -0.38780E-01  0.38565E+00  0.00000E+00 -0.39539E-01
          0.36028E+00  0.00000E+00 -0.55980E-01  0.34742E+00  0.00000E+00 -0.62136E-01  0.31154E+00  0.00000E+00 -0.78590E-01  0.29000E+00  0.00000E+00 -0.94702E-01  0.26308E+00  0.00000E+00 -0.96880E-01  0.22157E+00  0.00000E+00 -0.99819E-01
          0.16253E+00  0.00000E+00 -0.12055E+00  0.18451E+00  0.00000E+00 -0.11899E+00  0.17995E+00  0.00000E+00 -0.12601E+00  0.18248E+00  0.00000E+00 -0.13076E+00  0.18427E+00  0.00000E+00 -0.13540E+00  0.18631E+00  0.00000E+00 -0.14092E+00
          0.18708E+00  0.00000E+00 -0.14678E+00  0.18927E+00  0.00000E+00 -0.15279E+00  0.18967E+00  0.00000E+00 -0.15835E+00  0.19172E+00  0.00000E+00 -0.16472E+00  0.19267E+00  0.00000E+00 -0.17217E+00  0.19295E+00  0.00000E+00 -0.17659E+00
          0.19470E+00  0.00000E+00 -0.18280E+00  0.19516E+00  0.00000E+00 -0.19387E+00  0.19404E+00  0.00000E+00 -0.19473E+00  0.19637E+00  0.00000E+00 -0.19946E+00  0.19483E+00  0.00000E+00 -0.21429E+00  0.19490E+00  0.00000E+00 -0.21957E+00
          0.39773E+00  0.00000E+00 -0.11529E-02  0.41712E+00  0.00000E+00 -0.14940E-01  0.43289E+00  0.00000E+00 -0.17141E-01  0.41211E+00  0.00000E+00 -0.27141E-01  0.43110E+00  0.00000E+00 -0.36998E-01  0.41802E+00  0.00000E+00 -0.39969E-01
          0.39511E+00  0.00000E+00 -0.54286E-01  0.37857E+00  0.00000E+00 -0.58795E-01  0.35193E+00  0.00000E+00 -0.70205E-01  0.32575E+00  0.00000E+00 -0.81086E-01  0.28793E+00  0.00000E+00 -0.93553E-01  0.25229E+00  0.00000E+00 -0.97693E-01
          0.19207E+00  0.00000E+00 -0.12427E+00  0.20489E+00  0.00000E+00 -0.11899E+00  0.19518E+00  0.00000E+00 -0.13032E+00  0.19719E+00  0.00000E+00 -0.13497E+00  0.20011E+00  0.00000E+00 -0.13882E+00  0.20330E+00  0.00000E+00 -0.14454E+00
          0.20482E+00  0.00000E+00 -0.15038E+00  0.20768E+00  0.00000E+00 -0.15608E+00  0.20849E+00  0.00000E+00 -0.16166E+00  0.21082E+00  0.00000E+00 -0.16794E+00  0.21196E+00  0.00000E+00 -0.17516E+00  0.21238E+00  0.00000E+00 -0.17952E+00
          0.21419E+00  0.00000E+00 -0.18561E+00  0.21465E+00  0.00000E+00 -0.19633E+00  0.21349E+00  0.00000E+00 -0.19710E+00  0.21599E+00  0.00000E+00 -0.20185E+00  0.21429E+00  0.00000E+00 -0.21613E+00  0.21439E+00  0.00000E+00 -0.22116E+00
          0.43492E+00  0.00000E+00 -0.89455E-03  0.45218E+00  0.00000E+00 -0.13652E-01  0.46697E+00  0.00000E+00 -0.16029E-01  0.44683E+00  0.00000E+00 -0.25490E-01  0.46402E+00  0.00000E+00 -0.34032E-01  0.45052E+00  0.00000E+00 -0.38456E-01
          0.42980E+00  0.00000E+00 -0.52544E-01  0.41400E+00  0.00000E+00 -0.57753E-01  0.38777E+00  0.00000E+00 -0.69637E-01  0.36289E+00  0.00000E+00 -0.81049E-01  0.33191E+00  0.00000E+00 -0.80914E-01  0.28757E+00  0.00000E+00 -0.96984E-01
          0.23285E+00  0.00000E+00 -0.12697E+00  0.22861E+00  0.00000E+00 -0.11933E+00  0.21368E+00  0.00000E+00 -0.13153E+00  0.21107E+00  0.00000E+00 -0.13750E+00  0.21523E+00  0.00000E+00 -0.14093E+00  0.21890E+00  0.00000E+00 -0.14656E+00
          0.22109E+00  0.00000E+00 -0.15250E+00  0.22469E+00  0.00000E+00 -0.15783E+00  0.22586E+00  0.00000E+00 -0.16328E+00  0.22864E+00  0.00000E+00 -0.16944E+00  0.23010E+00  0.00000E+00 -0.17645E+00  0.23064E+00  0.00000E+00 -0.18069E+00
          0.23277E+00  0.00000E+00 -0.18670E+00  0.23343E+00  0.00000E+00 -0.19720E+00  0.23216E+00  0.00000E+00 -0.19798E+00  0.23501E+00  0.00000E+00 -0.20261E+00  0.23324E+00  0.00000E+00 -0.21662E+00  0.23336E+00  0.00000E+00 -0.22167E+00
          0.46986E+00  0.00000E+00 -0.73872E-03  0.48676E+00  0.00000E+00 -0.13323E-01  0.50018E+00  0.00000E+00 -0.15275E-01  0.47955E+00  0.00000E+00 -0.24360E-01  0.49536E+00  0.00000E+00 -0.32497E-01  0.48198E+00  0.00000E+00 -0.36980E-01
          0.46270E+00  0.00000E+00 -0.49603E-01  0.44726E+00  0.00000E+00 -0.55422E-01  0.42353E+00  0.00000E+00 -0.66784E-01  0.39910E+00  0.00000E+00 -0.79025E-01  0.36819E+00  0.00000E+00 -0.85101E-01  0.33422E+00  0.00000E+00 -0.90780E-01
          0.28774E+00  0.00000E+00 -0.11969E+00  0.25226E+00  0.00000E+00 -0.11997E+00  0.23191E+00  0.00000E+00 -0.12973E+00  0.22789E+00  0.00000E+00 -0.13827E+00  0.23146E+00  0.00000E+00 -0.14168E+00  0.23520E+00  0.00000E+00 -0.14708E+00
          0.23796E+00  0.00000E+00 -0.15362E+00  0.24222E+00  0.00000E+00 -0.15899E+00  0.24376E+00  0.00000E+00 -0.16441E+00  0.24698E+00  0.00000E+00 -0.17075E+00  0.24874E+00  0.00000E+00 -0.17770E+00  0.24942E+00  0.00000E+00 -0.18196E+00
          0.25171E+00  0.00000E+00 -0.18803E+00  0.25244E+00  0.00000E+00 -0.19832E+00  0.25101E+00  0.00000E+00 -0.19906E+00  0.25395E+00  0.00000E+00 -0.20377E+00  0.25202E+00  0.00000E+00 -0.21744E+00  0.25208E+00  0.00000E+00 -0.22223E+00
          0.50485E+00  0.00000E+00 -0.66930E-03  0.52130E+00  0.00000E+00 -0.13019E-01  0.53284E+00  0.00000E+00 -0.14676E-01  0.51050E+00  0.00000E+00 -0.23146E-01  0.52628E+00  0.00000E+00 -0.32096E-01  0.51255E+00  0.00000E+00 -0.35690E-01
          0.49425E+00  0.00000E+00 -0.47516E-01  0.47957E+00  0.00000E+00 -0.53727E-01  0.45860E+00  0.00000E+00 -0.63935E-01  0.43538E+00  0.00000E+00 -0.74812E-01  0.40632E+00  0.00000E+00 -0.84065E-01  0.37113E+00  0.00000E+00 -0.91171E-01
          0.33647E+00  0.00000E+00 -0.11050E+00  0.29340E+00  0.00000E+00 -0.12040E+00  0.25648E+00  0.00000E+00 -0.12917E+00  0.24702E+00  0.00000E+00 -0.13842E+00  0.24903E+00  0.00000E+00 -0.14461E+00  0.25246E+00  0.00000E+00 -0.14883E+00
          0.25527E+00  0.00000E+00 -0.15490E+00  0.26008E+00  0.00000E+00 -0.16066E+00  0.26169E+00  0.00000E+00 -0.16571E+00  0.26516E+00  0.00000E+00 -0.17183E+00  0.26709E+00  0.00000E+00 -0.17863E+00  0.26771E+00  0.00000E+00 -0.18267E+00
          0.27010E+00  0.00000E+00 -0.18861E+00  0.27086E+00  0.00000E+00 -0.19864E+00  0.26917E+00  0.00000E+00 -0.19918E+00  0.27234E+00  0.00000E+00 -0.20384E+00  0.27028E+00  0.00000E+00 -0.21718E+00  0.27032E+00  0.00000E+00 -0.22186E+00
          0.53994E+00  0.00000E+00 -0.71523E-03  0.55574E+00  0.00000E+00 -0.12237E-01  0.56696E+00  0.00000E+00 -0.14165E-01  0.54051E+00  0.00000E+00 -0.20618E-01  0.56117E+00  0.00000E+00 -0.34621E-01  0.54433E+00  0.00000E+00 -0.35425E-01
          0.52531E+00  0.00000E+00 -0.47279E-01  0.51141E+00  0.00000E+00 -0.53245E-01  0.49246E+00  0.00000E+00 -0.61967E-01  0.47054E+00  0.00000E+00 -0.71867E-01  0.44384E+00  0.00000E+00 -0.81117E-01  0.40878E+00  0.00000E+00 -0.90348E-01
          0.37663E+00  0.00000E+00 -0.10399E+00  0.33844E+00  0.00000E+00 -0.11541E+00  0.29169E+00  0.00000E+00 -0.13010E+00  0.27003E+00  0.00000E+00 -0.13794E+00  0.26734E+00  0.00000E+00 -0.14648E+00  0.26938E+00  0.00000E+00 -0.15125E+00
          0.27193E+00  0.00000E+00 -0.15635E+00  0.27714E+00  0.00000E+00 -0.16196E+00  0.27897E+00  0.00000E+00 -0.16690E+00  0.28280E+00  0.00000E+00 -0.17262E+00  0.28499E+00  0.00000E+00 -0.17917E+00  0.28566E+00  0.00000E+00 -0.18302E+00
          0.28828E+00  0.00000E+00 -0.18884E+00  0.28915E+00  0.00000E+00 -0.19865E+00  0.28722E+00  0.00000E+00 -0.19898E+00  0.29064E+00  0.00000E+00 -0.20367E+00  0.28846E+00  0.00000E+00 -0.21681E+00  0.28842E+00  0.00000E+00 -0.22128E+00
          0.57107E+00  0.00000E+00 -0.90529E-03  0.58928E+00  0.00000E+00 -0.13238E-01  0.60355E+00  0.00000E+00 -0.14244E-01  0.57513E+00  0.00000E+00 -0.18389E-01  0.59831E+00  0.00000E+00 -0.32230E-01  0.57766E+00  0.00000E+00 -0.37067E-01