<?xml version="1.0"?>
<VTKFile type="UnstructuredGrid" version="0.1" byte_order="LittleEndian" compressor="vtkZLibDataCompressor">
<UnstructuredGrid>
  <Piece NumberOfPoints="1800"        NumberOfCells="1"      >
    <Points>
      <DataArray type="Float32" NumberOfComponents="3" format="ascii" >
        0.49955E-02  0.00000E+00  0.48973E-02  0.49863E-02  0.00000E+00  0.15001E-01  0.50404E-02  0.00000E+00  0.24832E-01  0.50032E-02  0.00000E+00  0.34791E-01  0.50109E-02  0.00000E+00  0.44722E-01  0.50064E-02  0.00000E+00  0.54663E-01
        0.50062E-02  0.00000E+00  0.64605E-01  0.50048E-02  0.00000E+00  0.74549E-01  0.50038E-02  0.00000E+00  0.84496E-01  0.50030E-02  0.00000E+00  0.94443E-01  0.50020E-02  0.00000E+00  0.10439E+00  0.50011E-02  0.00000E+00  0.11434E+00
        0.50001E-02  0.00000E+00  0.12430E+00  0.49993E-02  0.00000E+00  0.13425E+00  0.49983E-02  0.00000E+00  0.14421E+00  0.49974E-02  0.00000E+00  0.15417E+00  0.49965E-02  0.00000E+00  0.16413E+00  0.49958E-02  0.00000E+00  0.17410E+00
        0.49951E-02  0.00000E+00  0.18407E+00  0.49945E-02  0.00000E+00  0.19404E+00  0.49939E-02  0.00000E+00  0.20401E+00  0.49935E-02  0.00000E+00  0.21398E+00  0.49934E-02  0.00000E+00  0.22396E+00  0.49934E-02  0.00000E+00  0.23394E+00
        0.49940E-02  0.00000E+00  0.24392E+00  0.49941E-02  0.00000E+00  0.25390E+00  0.49965E-02  0.00000E+00  0.26389E+00  0.49966E-02  0.00000E+00  0.27387E+00  0.50012E-02  0.00000E+00  0.28387E+00  0.50104E-02  0.00000E+00  0.29383E+00
        0.15228E-01  0.00000E+00  0.49372E-02  0.15132E-01  0.00000E+00  0.14948E-01  0.15155E-01  0.00000E+00  0.24804E-01  0.15146E-01  0.00000E+00  0.34800E-01  0.15145E-01  0.00000E+00  0.44716E-01  0.15141E-01  0.00000E+00  0.54660E-01
        0.15137E-01  0.00000E+00  0.64599E-01  0.15133E-01  0.00000E+00  0.74540E-01  0.15129E-01  0.00000E+00  0.84484E-01  0.15126E-01  0.00000E+00  0.94428E-01  0.15122E-01  0.00000E+00  0.10438E+00  0.15118E-01  0.00000E+00  0.11432E+00
        0.15114E-01  0.00000E+00  0.12428E+00  0.15110E-01  0.00000E+00  0.13423E+00  0.15105E-01  0.00000E+00  0.14418E+00  0.15101E-01  0.00000E+00  0.15414E+00  0.15096E-01  0.00000E+00  0.16410E+00  0.15091E-01  0.00000E+00  0.17407E+00
        0.15086E-01  0.00000E+00  0.18403E+00  0.15080E-01  0.00000E+00  0.19400E+00  0.15074E-01  0.00000E+00  0.20397E+00  0.15068E-01  0.00000E+00  0.21394E+00  0.15062E-01  0.00000E+00  0.22392E+00  0.15056E-01  0.00000E+00  0.23389E+00
        0.15049E-01  0.00000E+00  0.24388E+00  0.15042E-01  0.00000E+00  0.25386E+00  0.15037E-01  0.00000E+00  0.26385E+00  0.15028E-01  0.00000E+00  0.27383E+00  0.15026E-01  0.00000E+00  0.28382E+00  0.15023E-01  0.00000E+00  0.29383E+00
        0.25183E-01  0.00000E+00  0.50059E-02  0.25128E-01  0.00000E+00  0.15004E-01  0.25141E-01  0.00000E+00  0.24861E-01  0.25130E-01  0.00000E+00  0.34835E-01  0.25128E-01  0.00000E+00  0.44750E-01  0.25125E-01  0.00000E+00  0.54695E-01
        0.25119E-01  0.00000E+00  0.64632E-01  0.25115E-01  0.00000E+00  0.74572E-01  0.25111E-01  0.00000E+00  0.84515E-01  0.25106E-01  0.00000E+00  0.94457E-01  0.25102E-01  0.00000E+00  0.10440E+00  0.25097E-01  0.00000E+00  0.11435E+00
        0.25092E-01  0.00000E+00  0.12430E+00  0.25086E-01  0.00000E+00  0.13425E+00  0.25081E-01  0.00000E+00  0.14421E+00  0.25075E-01  0.00000E+00  0.15416E+00  0.25070E-01  0.00000E+00  0.16412E+00  0.25064E-01  0.00000E+00  0.17408E+00
        0.25058E-01  0.00000E+00  0.18405E+00  0.25053E-01  0.00000E+00  0.19401E+00  0.25047E-01  0.00000E+00  0.20398E+00  0.25041E-01  0.00000E+00  0.21395E+00  0.25035E-01  0.00000E+00  0.22393E+00  0.25030E-01  0.00000E+00  0.23391E+00
        0.25025E-01  0.00000E+00  0.24389E+00  0.25021E-01  0.00000E+00  0.25387E+00  0.25018E-01  0.00000E+00  0.26386E+00  0.25014E-01  0.00000E+00  0.27385E+00  0.25017E-01  0.00000E+00  0.28384E+00  0.25017E-01  0.00000E+00  0.29383E+00
        0.35252E-01  0.00000E+00  0.49590E-02  0.35255E-01  0.00000E+00  0.14996E-01  0.35251E-01  0.00000E+00  0.24857E-01  0.35246E-01  0.00000E+00  0.34840E-01  0.35243E-01  0.00000E+00  0.44757E-01  0.35238E-01  0.00000E+00  0.54702E-01
        0.35232E-01  0.00000E+00  0.64638E-01  0.35226E-01  0.00000E+00  0.74577E-01  0.35220E-01  0.00000E+00  0.84519E-01  0.35214E-01  0.00000E+00  0.94460E-01  0.35207E-01  0.00000E+00  0.10441E+00  0.35200E-01  0.00000E+00  0.11435E+00
        0.35193E-01  0.00000E+00  0.12430E+00  0.35185E-01  0.00000E+00  0.13425E+00  0.35177E-01  0.00000E+00  0.14420E+00  0.35169E-01  0.00000E+00  0.15416E+00  0.35160E-01  0.00000E+00  0.16411E+00  0.35151E-01  0.00000E+00  0.17407E+00
        0.35141E-01  0.00000E+00  0.18404E+00  0.35131E-01  0.00000E+00  0.19400E+00  0.35121E-01  0.00000E+00  0.20397E+00  0.35110E-01  0.00000E+00  0.21394E+00  0.35100E-01  0.00000E+00  0.22392E+00  0.35088E-01  0.00000E+00  0.23389E+00
        0.35077E-01  0.00000E+00  0.24387E+00  0.35066E-01  0.00000E+00  0.25385E+00  0.35055E-01  0.00000E+00  0.26384E+00  0.35044E-01  0.00000E+00  0.27383E+00  0.35035E-01  0.00000E+00  0.28382E+00  0.35027E-01  0.00000E+00  0.29382E+00
        0.45293E-01  0.00000E+00  0.49692E-02  0.45293E-01  0.00000E+00  0.14998E-01  0.45291E-01  0.00000E+00  0.24859E-01  0.45289E-01  0.00000E+00  0.34841E-01  0.45285E-01  0.00000E+00  0.44759E-01  0.45280E-01  0.00000E+00  0.54704E-01
        0.45273E-01  0.00000E+00  0.64640E-01  0.45265E-01  0.00000E+00  0.74578E-01  0.45257E-01  0.00000E+00  0.84519E-01  0.45249E-01  0.00000E+00  0.94460E-01  0.45240E-01  0.00000E+00  0.10440E+00  0.45231E-01  0.00000E+00  0.11435E+00
        0.45221E-01  0.00000E+00  0.12430E+00  0.45210E-01  0.00000E+00  0.13425E+00  0.45199E-01  0.00000E+00  0.14420E+00  0.45188E-01  0.00000E+00  0.15415E+00  0.45176E-01  0.00000E+00  0.16411E+00  0.45164E-01  0.00000E+00  0.17407E+00
        0.45152E-01  0.00000E+00  0.18403E+00  0.45139E-01  0.00000E+00  0.19399E+00  0.45127E-01  0.00000E+00  0.20396E+00  0.45113E-01  0.00000E+00  0.21393E+00  0.45100E-01  0.00000E+00  0.22391E+00  0.45087E-01  0.00000E+00  0.23388E+00
        0.45074E-01  0.00000E+00  0.24386E+00  0.45062E-01  0.00000E+00  0.25385E+00  0.45050E-01  0.00000E+00  0.26383E+00  0.45040E-01  0.00000E+00  0.27382E+00  0.45034E-01  0.00000E+00  0.28382E+00  0.45031E-01  0.00000E+00  0.29381E+00
        0.55346E-01  0.00000E+00  0.49641E-02  0.55359E-01  0.00000E+00  0.14994E-01  0.55364E-01  0.00000E+00  0.24859E-01  0.55364E-01  0.00000E+00  0.34840E-01  0.55361E-01  0.00000E+00  0.44757E-01  0.55356E-01  0.00000E+00  0.54701E-01
        0.55349E-01  0.00000E+00  0.64636E-01  0.55341E-01  0.00000E+00  0.74574E-01  0.55332E-01  0.00000E+00  0.84515E-01  0.55322E-01  0.00000E+00  0.94454E-01  0.55312E-01  0.00000E+00  0.10440E+00  0.55301E-01  0.00000E+00  0.11434E+00
        0.55290E-01  0.00000E+00  0.12429E+00  0.55278E-01  0.00000E+00  0.13424E+00  0.55265E-01  0.00000E+00  0.14419E+00  0.55252E-01  0.00000E+00  0.15414E+00  0.55238E-01  0.00000E+00  0.16410E+00  0.55223E-01  0.00000E+00  0.17405E+00
        0.55208E-01  0.00000E+00  0.18402E+00  0.55193E-01  0.00000E+00  0.19398E+00  0.55177E-01  0.00000E+00  0.20395E+00  0.55161E-01  0.00000E+00  0.21392E+00  0.55144E-01  0.00000E+00  0.22389E+00  0.55127E-01  0.00000E+00  0.23387E+00
        0.55110E-01  0.00000E+00  0.24385E+00  0.55093E-01  0.00000E+00  0.25383E+00  0.55076E-01  0.00000E+00  0.26381E+00  0.55060E-01  0.00000E+00  0.27380E+00  0.55047E-01  0.00000E+00  0.28379E+00  0.55039E-01  0.00000E+00  0.29379E+00
        0.65400E-01  0.00000E+00  0.49641E-02  0.65418E-01  0.00000E+00  0.14992E-01  0.65426E-01  0.00000E+00  0.24854E-01  0.65427E-01  0.00000E+00  0.34835E-01  0.65425E-01  0.00000E+00  0.44751E-01  0.65419E-01  0.00000E+00  0.54695E-01
        0.65411E-01  0.00000E+00  0.64629E-01  0.65401E-01  0.00000E+00  0.74566E-01  0.65391E-01  0.00000E+00  0.84506E-01  0.65379E-01  0.00000E+00  0.94445E-01  0.65367E-01  0.00000E+00  0.10439E+00  0.65354E-01  0.00000E+00  0.11433E+00
        0.65339E-01  0.00000E+00  0.12428E+00  0.65324E-01  0.00000E+00  0.13422E+00  0.65309E-01  0.00000E+00  0.14417E+00  0.65292E-01  0.00000E+00  0.15413E+00  0.65275E-01  0.00000E+00  0.16408E+00  0.65257E-01  0.00000E+00  0.17404E+00
        0.65239E-01  0.00000E+00  0.18400E+00  0.65220E-01  0.00000E+00  0.19396E+00  0.65200E-01  0.00000E+00  0.20393E+00  0.65180E-01  0.00000E+00  0.21390E+00  0.65160E-01  0.00000E+00  0.22387E+00  0.65140E-01  0.00000E+00  0.23385E+00
        0.65120E-01  0.00000E+00  0.24383E+00  0.65100E-01  0.00000E+00  0.25381E+00  0.65081E-01  0.00000E+00  0.26380E+00  0.65064E-01  0.00000E+00  0.27378E+00  0.65051E-01  0.00000E+00  0.28378E+00  0.65044E-01  0.00000E+00  0.29377E+00
        0.75456E-01  0.00000E+00  0.49627E-02  0.75479E-01  0.00000E+00  0.14989E-01  0.75491E-01  0.00000E+00  0.24850E-01  0.75495E-01  0.00000E+00  0.34830E-01  0.75493E-01  0.00000E+00  0.44745E-01  0.75487E-01  0.00000E+00  0.54688E-01
        0.75479E-01  0.00000E+00  0.64621E-01  0.75468E-01  0.00000E+00  0.74557E-01  0.75457E-01  0.00000E+00  0.84496E-01  0.75444E-01  0.00000E+00  0.94434E-01  0.75430E-01  0.00000E+00  0.10438E+00  0.75415E-01  0.00000E+00  0.11432E+00
        0.75399E-01  0.00000E+00  0.12426E+00  0.75382E-01  0.00000E+00  0.13421E+00  0.75365E-01  0.00000E+00  0.14416E+00  0.75346E-01  0.00000E+00  0.15411E+00  0.75326E-01  0.00000E+00  0.16406E+00  0.75306E-01  0.00000E+00  0.17402E+00
        0.75285E-01  0.00000E+00  0.18398E+00  0.75264E-01  0.00000E+00  0.19394E+00  0.75241E-01  0.00000E+00  0.20391E+00  0.75218E-01  0.00000E+00  0.21388E+00  0.75195E-01  0.00000E+00  0.22385E+00  0.75171E-01  0.00000E+00  0.23383E+00
        0.75147E-01  0.00000E+00  0.24380E+00  0.75124E-01  0.00000E+00  0.25379E+00  0.75101E-01  0.00000E+00  0.26377E+00  0.75080E-01  0.00000E+00  0.27376E+00  0.75062E-01  0.00000E+00  0.28375E+00  0.75052E-01  0.00000E+00  0.29374E+00
[...]
<PointData>
      <DataArray type="Float32" Name="Velocity vectors"  NumberOfComponents="3"  format="ascii" >
          0.14776E-02  0.00000E+00 -0.20476E-02  0.97711E-03  0.00000E+00 -0.41109E-02  0.86790E-03  0.00000E+00 -0.62690E-02  0.93924E-03  0.00000E+00 -0.90639E-02  0.86764E-03  0.00000E+00 -0.11518E-01  0.88531E-03  0.00000E+00 -0.14105E-01
          0.78198E-03  0.00000E+00 -0.16513E-01  0.75186E-03  0.00000E+00 -0.18970E-01  0.69470E-03  0.00000E+00 -0.21321E-01  0.65201E-03  0.00000E+00 -0.23606E-01  0.60523E-03  0.00000E+00 -0.25818E-01  0.57802E-03  0.00000E+00 -0.27938E-01
          0.54081E-03  0.00000E+00 -0.29958E-01  0.50705E-03  0.00000E+00 -0.31877E-01  0.48034E-03  0.00000E+00 -0.33702E-01  0.44996E-03  0.00000E+00 -0.35410E-01  0.42021E-03  0.00000E+00 -0.37012E-01  0.38951E-03  0.00000E+00 -0.38494E-01
          0.35020E-03  0.00000E+00 -0.39856E-01  0.30249E-03  0.00000E+00 -0.41104E-01  0.25157E-03  0.00000E+00 -0.42250E-01  0.19807E-03  0.00000E+00 -0.43296E-01  0.14656E-03  0.00000E+00 -0.44254E-01  0.10597E-03  0.00000E+00 -0.45111E-01
          0.85050E-04  0.00000E+00 -0.45858E-01  0.64391E-04  0.00000E+00 -0.46500E-01  0.86732E-04  0.00000E+00 -0.46997E-01  0.25180E-04  0.00000E+00 -0.47524E-01  0.19121E-03  0.00000E+00 -0.47562E-01  0.29421E-05  0.00000E+00 -0.48904E-01
          0.39217E-02  0.00000E+00 -0.10217E-02  0.32784E-02  0.00000E+00 -0.33424E-02  0.30799E-02  0.00000E+00 -0.64901E-02  0.32420E-02  0.00000E+00 -0.94625E-02  0.30526E-02  0.00000E+00 -0.11712E-01  0.30721E-02  0.00000E+00 -0.14596E-01
          0.29244E-02  0.00000E+00 -0.16991E-01  0.28363E-02  0.00000E+00 -0.19656E-01  0.27204E-02  0.00000E+00 -0.22103E-01  0.26230E-02  0.00000E+00 -0.24563E-01  0.25232E-02  0.00000E+00 -0.26913E-01  0.24376E-02  0.00000E+00 -0.29183E-01
          0.23485E-02  0.00000E+00 -0.31341E-01  0.22581E-02  0.00000E+00 -0.33392E-01  0.21725E-02  0.00000E+00 -0.35342E-01  0.20811E-02  0.00000E+00 -0.37169E-01  0.19887E-02  0.00000E+00 -0.38883E-01  0.18895E-02  0.00000E+00 -0.40468E-01
          0.17833E-02  0.00000E+00 -0.41927E-01  0.16672E-02  0.00000E+00 -0.43260E-01  0.15425E-02  0.00000E+00 -0.44479E-01  0.14115E-02  0.00000E+00 -0.45583E-01  0.12802E-02  0.00000E+00 -0.46583E-01  0.11566E-02  0.00000E+00 -0.47480E-01
          0.10403E-02  0.00000E+00 -0.48244E-01  0.93336E-03  0.00000E+00 -0.48915E-01  0.83707E-03  0.00000E+00 -0.49405E-01  0.71171E-03  0.00000E+00 -0.49899E-01  0.66690E-03  0.00000E+00 -0.50259E-01  0.47103E-03  0.00000E+00 -0.50320E-01
          0.64890E-02  0.00000E+00 -0.79159E-03  0.54475E-02  0.00000E+00 -0.27991E-02  0.51864E-02  0.00000E+00 -0.57515E-02  0.51408E-02  0.00000E+00 -0.85904E-02  0.50527E-02  0.00000E+00 -0.10975E-01  0.49422E-02  0.00000E+00 -0.13932E-01
          0.48009E-02  0.00000E+00 -0.16330E-01  0.46100E-02  0.00000E+00 -0.19072E-01  0.44488E-02  0.00000E+00 -0.21544E-01  0.42616E-02  0.00000E+00 -0.24075E-01  0.40943E-02  0.00000E+00 -0.26474E-01  0.39236E-02  0.00000E+00 -0.28807E-01
          0.37573E-02  0.00000E+00 -0.31031E-01  0.35822E-02  0.00000E+00 -0.33144E-01  0.34037E-02  0.00000E+00 -0.35157E-01  0.32180E-02  0.00000E+00 -0.37040E-01  0.30225E-02  0.00000E+00 -0.38807E-01  0.28213E-02  0.00000E+00 -0.40442E-01
          0.26091E-02  0.00000E+00 -0.41951E-01  0.23890E-02  0.00000E+00 -0.43330E-01  0.21600E-02  0.00000E+00 -0.44588E-01  0.19294E-02  0.00000E+00 -0.45730E-01  0.16928E-02  0.00000E+00 -0.46752E-01  0.14737E-02  0.00000E+00 -0.47671E-01
          0.12612E-02  0.00000E+00 -0.48435E-01  0.10826E-02  0.00000E+00 -0.49111E-01  0.92899E-03  0.00000E+00 -0.49619E-01  0.79615E-03  0.00000E+00 -0.50034E-01  0.78132E-03  0.00000E+00 -0.50369E-01  0.92544E-03  0.00000E+00 -0.50867E-01
          0.81827E-02  0.00000E+00 -0.91850E-03  0.74892E-02  0.00000E+00 -0.25951E-02  0.73848E-02  0.00000E+00 -0.55263E-02  0.73213E-02  0.00000E+00 -0.83009E-02  0.72184E-02  0.00000E+00 -0.10663E-01  0.71049E-02  0.00000E+00 -0.13584E-01
          0.69219E-02  0.00000E+00 -0.16008E-01  0.67122E-02  0.00000E+00 -0.18753E-01  0.65074E-02  0.00000E+00 -0.21231E-01  0.62780E-02  0.00000E+00 -0.23793E-01  0.60570E-02  0.00000E+00 -0.26207E-01  0.58306E-02  0.00000E+00 -0.28568E-01
          0.56057E-02  0.00000E+00 -0.30827E-01  0.53704E-02  0.00000E+00 -0.32976E-01  0.51323E-02  0.00000E+00 -0.35026E-01  0.48841E-02  0.00000E+00 -0.36949E-01  0.46248E-02  0.00000E+00 -0.38757E-01  0.43550E-02  0.00000E+00 -0.40431E-01
          0.40733E-02  0.00000E+00 -0.41980E-01  0.37796E-02  0.00000E+00 -0.43399E-01  0.34763E-02  0.00000E+00 -0.44690E-01  0.31687E-02  0.00000E+00 -0.45868E-01  0.28573E-02  0.00000E+00 -0.46911E-01  0.25554E-02  0.00000E+00 -0.47854E-01
          0.22611E-02  0.00000E+00 -0.48635E-01  0.19781E-02  0.00000E+00 -0.49334E-01  0.17216E-02  0.00000E+00 -0.49846E-01  0.15040E-02  0.00000E+00 -0.50361E-01  0.12884E-02  0.00000E+00 -0.50658E-01  0.12525E-02  0.00000E+00 -0.51066E-01
          0.10148E-01  0.00000E+00 -0.91517E-03  0.99459E-02  0.00000E+00 -0.27166E-02  0.98101E-02  0.00000E+00 -0.54891E-02  0.97544E-02  0.00000E+00 -0.82566E-02  0.96710E-02  0.00000E+00 -0.10590E-01  0.95260E-02  0.00000E+00 -0.13503E-01
          0.93059E-02  0.00000E+00 -0.15942E-01  0.90658E-02  0.00000E+00 -0.18679E-01  0.87943E-02  0.00000E+00 -0.21173E-01  0.85094E-02  0.00000E+00 -0.23750E-01  0.82126E-02  0.00000E+00 -0.26176E-01  0.79046E-02  0.00000E+00 -0.28554E-01
          0.75847E-02  0.00000E+00 -0.30837E-01  0.72486E-02  0.00000E+00 -0.33009E-01  0.69009E-02  0.00000E+00 -0.35081E-01  0.65384E-02  0.00000E+00 -0.37031E-01  0.61629E-02  0.00000E+00 -0.38864E-01  0.57740E-02  0.00000E+00 -0.40564E-01
          0.53728E-02  0.00000E+00 -0.42138E-01  0.49564E-02  0.00000E+00 -0.43579E-01  0.45302E-02  0.00000E+00 -0.44886E-01  0.40951E-02  0.00000E+00 -0.46079E-01  0.36579E-02  0.00000E+00 -0.47127E-01  0.32228E-02  0.00000E+00 -0.48071E-01
          0.28052E-02  0.00000E+00 -0.48848E-01  0.24054E-02  0.00000E+00 -0.49556E-01  0.20439E-02  0.00000E+00 -0.50043E-01  0.17572E-02  0.00000E+00 -0.50551E-01  0.15774E-02  0.00000E+00 -0.50803E-01  0.15019E-02  0.00000E+00 -0.51340E-01
          0.12073E-01  0.00000E+00 -0.88893E-03  0.11876E-01  0.00000E+00 -0.26570E-02  0.11778E-01  0.00000E+00 -0.54740E-02  0.11771E-01  0.00000E+00 -0.82376E-02  0.11701E-01  0.00000E+00 -0.10601E-01  0.11544E-01  0.00000E+00 -0.13530E-01
          0.11330E-01  0.00000E+00 -0.15978E-01  0.11060E-01  0.00000E+00 -0.18738E-01  0.10756E-01  0.00000E+00 -0.21246E-01  0.10435E-01  0.00000E+00 -0.23841E-01  0.10095E-01  0.00000E+00 -0.26288E-01  0.97345E-02  0.00000E+00 -0.28693E-01
          0.93550E-02  0.00000E+00 -0.31003E-01  0.89554E-02  0.00000E+00 -0.33205E-01  0.85355E-02  0.00000E+00 -0.35306E-01  0.80976E-02  0.00000E+00 -0.37286E-01  0.76446E-02  0.00000E+00 -0.39147E-01  0.71773E-02  0.00000E+00 -0.40873E-01
          0.66983E-02  0.00000E+00 -0.42475E-01  0.62059E-02  0.00000E+00 -0.43944E-01  0.57021E-02  0.00000E+00 -0.45276E-01  0.51872E-02  0.00000E+00 -0.46493E-01  0.46684E-02  0.00000E+00 -0.47563E-01  0.41460E-02  0.00000E+00 -0.48528E-01
          0.36327E-02  0.00000E+00 -0.49323E-01  0.31394E-02  0.00000E+00 -0.50054E-01  0.26890E-02  0.00000E+00 -0.50570E-01  0.22950E-02  0.00000E+00 -0.51107E-01  0.20069E-02  0.00000E+00 -0.51401E-01  0.18431E-02  0.00000E+00 -0.51883E-01
          0.14157E-01  0.00000E+00 -0.95876E-03  0.14169E-01  0.00000E+00 -0.27583E-02  0.14185E-01  0.00000E+00 -0.55417E-02  0.14203E-01  0.00000E+00 -0.83577E-02  0.14147E-01  0.00000E+00 -0.10765E-01  0.14005E-01  0.00000E+00 -0.13698E-01
          0.13779E-01  0.00000E+00 -0.16179E-01  0.13485E-01  0.00000E+00 -0.18970E-01  0.13148E-01  0.00000E+00 -0.21498E-01  0.12783E-01  0.00000E+00 -0.24115E-01  0.12387E-01  0.00000E+00 -0.26593E-01  0.11957E-01  0.00000E+00 -0.29028E-01
          0.11500E-01  0.00000E+00 -0.31368E-01  0.11014E-01  0.00000E+00 -0.33603E-01  0.10499E-01  0.00000E+00 -0.35736E-01  0.99594E-02  0.00000E+00 -0.37744E-01  0.93990E-02  0.00000E+00 -0.39632E-01  0.88168E-02  0.00000E+00 -0.41383E-01
          0.82174E-02  0.00000E+00 -0.43006E-01  0.76004E-02  0.00000E+00 -0.44497E-01  0.69671E-02  0.00000E+00 -0.45850E-01  0.63182E-02  0.00000E+00 -0.47083E-01  0.56624E-02  0.00000E+00 -0.48167E-01  0.50014E-02  0.00000E+00 -0.49144E-01
          0.43492E-02  0.00000E+00 -0.49949E-01  0.37211E-02  0.00000E+00 -0.50680E-01  0.31534E-02  0.00000E+00 -0.51201E-01  0.26755E-02  0.00000E+00 -0.51737E-01  0.23442E-02  0.00000E+00 -0.52020E-01  0.21832E-02  0.00000E+00 -0.52577E-01
          0.16259E-01  0.00000E+00 -0.97846E-03  0.16303E-01  0.00000E+00 -0.28327E-02  0.16358E-01  0.00000E+00 -0.56737E-02  0.16415E-01  0.00000E+00 -0.85132E-02  0.16392E-01  0.00000E+00 -0.10943E-01  0.16245E-01  0.00000E+00 -0.13906E-01
          0.16001E-01  0.00000E+00 -0.16420E-01  0.15684E-01  0.00000E+00 -0.19244E-01  0.15314E-01  0.00000E+00 -0.21797E-01  0.14904E-01  0.00000E+00 -0.24443E-01  0.14451E-01  0.00000E+00 -0.26960E-01  0.13957E-01  0.00000E+00 -0.29431E-01
          0.13428E-01  0.00000E+00 -0.31804E-01  0.12863E-01  0.00000E+00 -0.34076E-01  0.12263E-01  0.00000E+00 -0.36244E-01  0.11636E-01  0.00000E+00 -0.38279E-01  0.10984E-01  0.00000E+00 -0.40196E-01  0.10308E-01  0.00000E+00 -0.41973E-01
          0.96125E-02  0.00000E+00 -0.43620E-01  0.88976E-02  0.00000E+00 -0.45136E-01  0.81628E-02  0.00000E+00 -0.46514E-01  0.74111E-02  0.00000E+00 -0.47770E-01  0.66492E-02  0.00000E+00 -0.48876E-01  0.58821E-02  0.00000E+00 -0.49875E-01
          0.51240E-02  0.00000E+00 -0.50701E-01  0.43951E-02  0.00000E+00 -0.51453E-01  0.37258E-02  0.00000E+00 -0.51998E-01  0.31606E-02  0.00000E+00 -0.52564E-01  0.27517E-02  0.00000E+00 -0.52878E-01  0.25483E-02  0.00000E+00 -0.53410E-01
          0.18440E-01  0.00000E+00 -0.10230E-02  0.18575E-01  0.00000E+00 -0.29298E-02  0.18721E-01  0.00000E+00 -0.58044E-02  0.18840E-01  0.00000E+00 -0.86875E-02  0.18848E-01  0.00000E+00 -0.11174E-01  0.18709E-01  0.00000E+00 -0.14179E-01
          0.18454E-01  0.00000E+00 -0.16727E-01  0.18118E-01  0.00000E+00 -0.19586E-01  0.17715E-01  0.00000E+00 -0.22177E-01  0.17256E-01  0.00000E+00 -0.24863E-01  0.16748E-01  0.00000E+00 -0.27424E-01  0.16193E-01  0.00000E+00 -0.29939E-01
          0.15592E-01  0.00000E+00 -0.32354E-01  0.14947E-01  0.00000E+00 -0.34671E-01  0.14261E-01  0.00000E+00 -0.36878E-01  0.13541E-01  0.00000E+00 -0.38945E-01  0.12789E-01  0.00000E+00 -0.40895E-01  0.12007E-01  0.00000E+00 -0.42703E-01
          0.11197E-01  0.00000E+00 -0.44377E-01  0.10361E-01  0.00000E+00 -0.45921E-01  0.94970E-02  0.00000E+00 -0.47327E-01  0.86104E-02  0.00000E+00 -0.48607E-01  0.77068E-02  0.00000E+00 -0.49734E-01  0.67952E-02  0.00000E+00 -0.50751E-01
          0.58937E-02  0.00000E+00 -0.51589E-01  0.50297E-02  0.00000E+00 -0.52350E-01  0.42390E-02  0.00000E+00 -0.52901E-01  0.35813E-02  0.00000E+00 -0.53470E-01  0.31219E-02  0.00000E+00 -0.53776E-01  0.29099E-02  0.00000E+00 -0.54347E-01
          0.20684E-01  0.00000E+00 -0.10590E-02  0.20865E-01  0.00000E+00 -0.30289E-02  0.21073E-01  0.00000E+00 -0.59752E-02  0.21235E-01  0.00000E+00 -0.89045E-02  0.21271E-01  0.00000E+00 -0.11432E-01  0.21138E-01  0.00000E+00 -0.14487E-01
          0.20865E-01  0.00000E+00 -0.17072E-01  0.20494E-01  0.00000E+00 -0.19971E-01  0.20041E-01  0.00000E+00 -0.22612E-01  0.19519E-01  0.00000E+00 -0.25343E-01  0.18942E-01  0.00000E+00 -0.27949E-01  0.18312E-01  0.00000E+00 -0.30512E-01
          0.17627E-01  0.00000E+00 -0.32974E-01  0.16896E-01  0.00000E+00 -0.35336E-01  0.16122E-01  0.00000E+00 -0.37583E-01  0.15308E-01  0.00000E+00 -0.39687E-01  0.14458E-01  0.00000E+00 -0.41672E-01  0.13575E-01  0.00000E+00 -0.43512E-01
          0.12660E-01  0.00000E+00 -0.45217E-01  0.11713E-01  0.00000E+00 -0.46793E-01  0.10736E-01  0.00000E+00 -0.48231E-01  0.97341E-02  0.00000E+00 -0.49539E-01  0.87132E-02  0.00000E+00 -0.50694E-01  0.76860E-02  0.00000E+00 -0.51733E-01
          0.66711E-02  0.00000E+00 -0.52588E-01  0.56987E-02  0.00000E+00 -0.53368E-01  0.48069E-02  0.00000E+00 -0.53935E-01  0.40648E-02  0.00000E+00 -0.54521E-01  0.35371E-02  0.00000E+00 -0.54843E-01  0.32863E-02  0.00000E+00 -0.55420E-01
          0.22985E-01  0.00000E+00 -0.10887E-02  0.23211E-01  0.00000E+00 -0.31158E-02  0.23495E-01  0.00000E+00 -0.61362E-02  0.23722E-01  0.00000E+00 -0.91200E-02  0.23796E-01  0.00000E+00 -0.11701E-01  0.23673E-01  0.00000E+00 -0.14823E-01
          0.23383E-01  0.00000E+00 -0.17458E-01  0.22976E-01  0.00000E+00 -0.20408E-01  0.22475E-01  0.00000E+00 -0.23109E-01  0.21895E-01  0.00000E+00 -0.25893E-01  0.21252E-01  0.00000E+00 -0.28550E-01  0.20548E-01  0.00000E+00 -0.31171E-01
          0.19784E-01  0.00000E+00 -0.33687E-01  0.18970E-01  0.00000E+00 -0.36096E-01  0.18111E-01  0.00000E+00 -0.38389E-01  0.17207E-01  0.00000E+00 -0.40536E-01  0.16261E-01  0.00000E+00 -0.42561E-01  0.15278E-01  0.00000E+00 -0.44440E-01
          0.14254E-01  0.00000E+00 -0.46186E-01  0.13190E-01  0.00000E+00 -0.47801E-01  0.12090E-01  0.00000E+00 -0.49275E-01  0.10958E-01  0.00000E+00 -0.50617E-01  0.98011E-02  0.00000E+00 -0.51801E-01  0.86364E-02  0.00000E+00 -0.52862E-01
          0.74841E-02  0.00000E+00 -0.53732E-01  0.63790E-02  0.00000E+00 -0.54524E-01  0.53669E-02  0.00000E+00 -0.55097E-01  0.45280E-02  0.00000E+00 -0.55685E-01  0.39376E-02  0.00000E+00 -0.56004E-01  0.36629E-02  0.00000E+00 -0.56609E-01
          0.25406E-01  0.00000E+00 -0.11001E-02  0.25685E-01  0.00000E+00 -0.31932E-02  0.26048E-01  0.00000E+00 -0.63015E-02  0.26330E-01  0.00000E+00 -0.93619E-02  0.26425E-01  0.00000E+00 -0.12004E-01  0.26297E-01  0.00000E+00 -0.15200E-01
          0.25977E-01  0.00000E+00 -0.17900E-01  0.25521E-01  0.00000E+00 -0.20906E-01  0.24959E-01  0.00000E+00 -0.23672E-01  0.24309E-01  0.00000E+00 -0.26516E-01  0.23584E-01  0.00000E+00 -0.29229E-01  0.22794E-01  0.00000E+00 -0.31912E-01
          0.21942E-01  0.00000E+00 -0.34482E-01  0.21037E-01  0.00000E+00 -0.36938E-01  0.20083E-01  0.00000E+00 -0.39280E-01  0.19079E-01  0.00000E+00 -0.41474E-01  0.18031E-01  0.00000E+00 -0.43539E-01  0.16941E-01  0.00000E+00 -0.45461E-01
          0.15805E-01  0.00000E+00 -0.47252E-01  0.14626E-01  0.00000E+00 -0.48910E-01  0.13407E-01  0.00000E+00 -0.50425E-01  0.12153E-01  0.00000E+00 -0.51805E-01  0.10872E-01  0.00000E+00 -0.53021E-01  0.95837E-02  0.00000E+00 -0.54108E-01
          0.83090E-02  0.00000E+00 -0.54997E-01  0.70865E-02  0.00000E+00 -0.55808E-01  0.59670E-02  0.00000E+00 -0.56391E-01  0.50365E-02  0.00000E+00 -0.56993E-01  0.43736E-02  0.00000E+00 -0.57323E-01  0.40593E-02  0.00000E+00 -0.57941E-01
          0.27965E-01  0.00000E+00 -0.11121E-02  0.28292E-01  0.00000E+00 -0.32619E-02  0.28710E-01  0.00000E+00 -0.64620E-02  0.29035E-01  0.00000E+00 -0.96152E-02  0.29145E-01  0.00000E+00 -0.12329E-01  0.29011E-01  0.00000E+00 -0.15608E-01
          0.28666E-01  0.00000E+00 -0.18384E-01  0.28164E-01  0.00000E+00 -0.21458E-01  0.27543E-01  0.00000E+00 -0.24295E-01  0.26825E-01  0.00000E+00 -0.27208E-01  0.26024E-01  0.00000E+00 -0.29986E-01  0.25154E-01  0.00000E+00 -0.32731E-01
          0.24220E-01  0.00000E+00 -0.35361E-01  0.23227E-01  0.00000E+00 -0.37871E-01  0.22180E-01  0.00000E+00 -0.40266E-01  0.21080E-01  0.00000E+00 -0.42513E-01  0.19929E-01  0.00000E+00 -0.44626E-01  0.18730E-01  0.00000E+00 -0.46599E-01
          0.17478E-01  0.00000E+00 -0.48442E-01  0.16177E-01  0.00000E+00 -0.50149E-01  0.14830E-01  0.00000E+00 -0.51710E-01  0.13443E-01  0.00000E+00 -0.53135E-01  0.12027E-01  0.00000E+00 -0.54385E-01  0.10602E-01  0.00000E+00 -0.55500E-01
          0.91891E-02  0.00000E+00 -0.56411E-01  0.78327E-02  0.00000E+00 -0.57238E-01  0.65901E-02  0.00000E+00 -0.57828E-01  0.55538E-02  0.00000E+00 -0.58439E-01  0.48145E-02  0.00000E+00 -0.58772E-01  0.44641E-02  0.00000E+00 -0.59412E-01
          0.30677E-01  0.00000E+00 -0.11336E-02  0.31068E-01  0.00000E+00 -0.33496E-02  0.31531E-01  0.00000E+00 -0.66423E-02  0.31890E-01  0.00000E+00 -0.99050E-02  0.32003E-01  0.00000E+00 -0.12702E-01  0.31852E-01  0.00000E+00 -0.16064E-01
          0.31471E-01  0.00000E+00 -0.18926E-01  0.30913E-01  0.00000E+00 -0.22079E-01  0.30224E-01  0.00000E+00 -0.24991E-01  0.29433E-01  0.00000E+00 -0.27979E-01  0.28552E-01  0.00000E+00 -0.30827E-01  0.27595E-01  0.00000E+00 -0.33634E-01
          0.26570E-01  0.00000E+00 -0.36329E-01  0.25479E-01  0.00000E+00 -0.38899E-01  0.24328E-01  0.00000E+00 -0.41348E-01  0.23121E-01  0.00000E+00 -0.43652E-01  0.21856E-01  0.00000E+00 -0.45819E-01  0.20535E-01  0.00000E+00 -0.47848E-01
          0.19158E-01  0.00000E+00 -0.49747E-01  0.17728E-01  0.00000E+00 -0.51506E-01  0.16249E-01  0.00000E+00 -0.53117E-01  0.14728E-01  0.00000E+00 -0.54589E-01  0.13178E-01  0.00000E+00 -0.55876E-01  0.11619E-01  0.00000E+00 -0.57022E-01
          0.10074E-01  0.00000E+00 -0.57958E-01  0.85916E-02  0.00000E+00 -0.58805E-01  0.72319E-02  0.00000E+00 -0.59408E-01  0.60933E-02  0.00000E+00 -0.60038E-01  0.52754E-02  0.00000E+00 -0.60382E-01  0.48839E-02  0.00000E+00 -0.61035E-01
          0.33516E-01  0.00000E+00 -0.11753E-02  0.33968E-01  0.00000E+00 -0.34667E-02  0.34454E-01  0.00000E+00 -0.68544E-02  0.34833E-01  0.00000E+00 -0.10228E-01  0.34946E-01  0.00000E+00 -0.13116E-01  0.34769E-01  0.00000E+00 -0.16566E-01
          0.34347E-01  0.00000E+00 -0.19521E-01  0.33734E-01  0.00000E+00 -0.22762E-01  0.32981E-01  0.00000E+00 -0.25751E-01  0.32121E-01  0.00000E+00 -0.28817E-01  0.31163E-01  0.00000E+00 -0.31742E-01  0.30123E-01  0.00000E+00 -0.34618E-01
          0.29009E-01  0.00000E+00 -0.37383E-01  0.27823E-01  0.00000E+00 -0.40020E-01  0.26569E-01  0.00000E+00 -0.42532E-01  0.25251E-01  0.00000E+00 -0.44900E-01  0.23867E-01  0.00000E+00 -0.47132E-01  0.22419E-01  0.00000E+00 -0.49222E-01
          0.20910E-01  0.00000E+00 -0.51183E-01  0.19344E-01  0.00000E+00 -0.53001E-01  0.17724E-01  0.00000E+00 -0.54667E-01  0.16062E-01  0.00000E+00 -0.56187E-01  0.14370E-01  0.00000E+00 -0.57513E-01  0.12669E-01  0.00000E+00 -0.58693E-01
          0.10983E-01  0.00000E+00 -0.59656E-01  0.93663E-02  0.00000E+00 -0.60522E-01  0.78816E-02  0.00000E+00 -0.61139E-01  0.66363E-02  0.00000E+00 -0.61787E-01  0.57424E-02  0.00000E+00 -0.62136E-01  0.53147E-02  0.00000E+00 -0.62808E-01
          0.36439E-01  0.00000E+00 -0.12505E-02  0.36954E-01  0.00000E+00 -0.36293E-02  0.37461E-01  0.00000E+00 -0.71115E-02  0.37856E-01  0.00000E+00 -0.10595E-01  0.37967E-01  0.00000E+00 -0.13587E-01  0.37761E-01  0.00000E+00 -0.17130E-01
          0.37294E-01  0.00000E+00 -0.20178E-01  0.36626E-01  0.00000E+00 -0.23513E-01  0.35807E-01  0.00000E+00 -0.26583E-01  0.34874E-01  0.00000E+00 -0.29731E-01  0.33836E-01  0.00000E+00 -0.32740E-01  0.32708E-01  0.00000E+00 -0.35690E-01
          0.31501E-01  0.00000E+00 -0.38529E-01  0.30212E-01  0.00000E+00 -0.41243E-01  0.28846E-01  0.00000E+00 -0.43826E-01  0.27406E-01  0.00000E+00 -0.46265E-01  0.25893E-01  0.00000E+00 -0.48570E-01  0.24309E-01  0.00000E+00 -0.50728E-01
          0.22658E-01  0.00000E+00 -0.52753E-01  0.20947E-01  0.00000E+00 -0.54633E-01  0.19181E-01  0.00000E+00 -0.56354E-01  0.17374E-01  0.00000E+00 -0.57922E-01  0.15539E-01  0.00000E+00 -0.59288E-01  0.13697E-01  0.00000E+00 -0.60503E-01
          0.11876E-01  0.00000E+00 -0.61492E-01  0.10131E-01  0.00000E+00 -0.62381E-01  0.85283E-02  0.00000E+00 -0.63016E-01  0.71837E-02  0.00000E+00 -0.63687E-01  0.62194E-02  0.00000E+00 -0.64045E-01  0.57572E-02  0.00000E+00 -0.64737E-01
          0.39392E-01  0.00000E+00 -0.13458E-02  0.39953E-01  0.00000E+00 -0.38285E-02  0.40486E-01  0.00000E+00 -0.74163E-02  0.40902E-01  0.00000E+00 -0.11005E-01  0.41017E-01  0.00000E+00 -0.14107E-01  0.40786E-01  0.00000E+00 -0.17749E-01