<?xml version="1.0"?>
<VTKFile type="UnstructuredGrid" version="0.1" byte_order="LittleEndian" compressor="vtkZLibDataCompressor">
<UnstructuredGrid>
  <Piece NumberOfPoints="1800"        NumberOfCells="1"      >
    <Points>
      <DataArray type="Float32" NumberOfComponents="3" format="ascii" >
        0.15722E-01  0.00000E+00  0.24793E-02  0.79277E-02  0.00000E+00  0.73972E-02  0.71661E-02  0.00000E+00  0.14920E-01  0.83387E-02  0.00000E+00  0.21056E-01  0.83382E-02  0.00000E+00  0.27290E-01  0.78529E-02  0.00000E+00  0.33917E-01
        0.77151E-02  0.00000E+00  0.40559E-01  0.78958E-02  0.00000E+00  0.46896E-01  0.78918E-02  0.00000E+00  0.53082E-01  0.77435E-02  0.00000E+00  0.59355E-01  0.75677E-02  0.00000E+00  0.65780E-01  0.74062E-02  0.00000E+00  0.72273E-01
        0.72767E-02  0.00000E+00  0.78870E-01  0.71530E-02  0.00000E+00  0.85562E-01  0.70454E-02  0.00000E+00  0.92339E-01  0.69502E-02  0.00000E+00  0.99198E-01  0.68648E-02  0.00000E+00  0.10613E+00  0.67875E-02  0.00000E+00  0.11314E+00
        0.67161E-02  0.00000E+00  0.12021E+00  0.66507E-02  0.00000E+00  0.12735E+00  0.65877E-02  0.00000E+00  0.13456E+00  0.65280E-02  0.00000E+00  0.14182E+00  0.64746E-02  0.00000E+00  0.14915E+00  0.64112E-02  0.00000E+00  0.15652E+00
        0.63684E-02  0.00000E+00  0.16398E+00  0.63322E-02  0.00000E+00  0.17149E+00  0.61858E-02  0.00000E+00  0.17896E+00  0.64164E-02  0.00000E+00  0.18674E+00  0.60613E-02  0.00000E+00  0.19443E+00  0.57859E-02  0.00000E+00  0.20092E+00
        0.29989E-01  0.00000E+00  0.37740E-02  0.19747E-01  0.00000E+00  0.10746E-01  0.28017E-01  0.00000E+00  0.14343E-01  0.26951E-01  0.00000E+00  0.22258E-01  0.18797E-01  0.00000E+00  0.25589E-01  0.26545E-01  0.00000E+00  0.32557E-01
        0.20086E-01  0.00000E+00  0.38439E-01  0.24321E-01  0.00000E+00  0.44894E-01  0.21967E-01  0.00000E+00  0.51431E-01  0.22503E-01  0.00000E+00  0.58242E-01  0.21978E-01  0.00000E+00  0.65049E-01  0.21746E-01  0.00000E+00  0.71868E-01
        0.21474E-01  0.00000E+00  0.78730E-01  0.21236E-01  0.00000E+00  0.85623E-01  0.21015E-01  0.00000E+00  0.92546E-01  0.20808E-01  0.00000E+00  0.99514E-01  0.20611E-01  0.00000E+00  0.10652E+00  0.20426E-01  0.00000E+00  0.11358E+00
        0.20248E-01  0.00000E+00  0.12068E+00  0.20079E-01  0.00000E+00  0.12784E+00  0.19918E-01  0.00000E+00  0.13505E+00  0.19759E-01  0.00000E+00  0.14231E+00  0.19613E-01  0.00000E+00  0.14964E+00  0.19467E-01  0.00000E+00  0.15697E+00
        0.19309E-01  0.00000E+00  0.16440E+00  0.19234E-01  0.00000E+00  0.17197E+00  0.18969E-01  0.00000E+00  0.17917E+00  0.19085E-01  0.00000E+00  0.18718E+00  0.18718E-01  0.00000E+00  0.19479E+00  0.18682E-01  0.00000E+00  0.20100E+00
        0.46504E-01  0.00000E+00  0.35651E-02  0.37720E-01  0.00000E+00  0.10191E-01  0.47180E-01  0.00000E+00  0.14129E-01  0.43475E-01  0.00000E+00  0.21485E-01  0.36188E-01  0.00000E+00  0.26218E-01  0.43520E-01  0.00000E+00  0.32965E-01
        0.35405E-01  0.00000E+00  0.38536E-01  0.40080E-01  0.00000E+00  0.45136E-01  0.36228E-01  0.00000E+00  0.51400E-01  0.37097E-01  0.00000E+00  0.58425E-01  0.36253E-01  0.00000E+00  0.65323E-01  0.36055E-01  0.00000E+00  0.72282E-01
        0.35733E-01  0.00000E+00  0.79285E-01  0.35446E-01  0.00000E+00  0.86287E-01  0.35161E-01  0.00000E+00  0.93314E-01  0.34886E-01  0.00000E+00  0.10037E+00  0.34611E-01  0.00000E+00  0.10745E+00  0.34344E-01  0.00000E+00  0.11457E+00
        0.34081E-01  0.00000E+00  0.12172E+00  0.33825E-01  0.00000E+00  0.12892E+00  0.33575E-01  0.00000E+00  0.13614E+00  0.33332E-01  0.00000E+00  0.14340E+00  0.33092E-01  0.00000E+00  0.15074E+00  0.32867E-01  0.00000E+00  0.15805E+00
        0.32640E-01  0.00000E+00  0.16545E+00  0.32437E-01  0.00000E+00  0.17302E+00  0.32228E-01  0.00000E+00  0.18010E+00  0.32080E-01  0.00000E+00  0.18814E+00  0.31828E-01  0.00000E+00  0.19560E+00  0.31711E-01  0.00000E+00  0.20172E+00
        0.66354E-01  0.00000E+00  0.34767E-02  0.56839E-01  0.00000E+00  0.87455E-02  0.61083E-01  0.00000E+00  0.15819E-01  0.62727E-01  0.00000E+00  0.23601E-01  0.52556E-01  0.00000E+00  0.25883E-01  0.59629E-01  0.00000E+00  0.33385E-01
        0.51959E-01  0.00000E+00  0.38420E-01  0.54782E-01  0.00000E+00  0.45689E-01  0.51200E-01  0.00000E+00  0.51973E-01  0.51378E-01  0.00000E+00  0.58962E-01  0.50618E-01  0.00000E+00  0.65865E-01  0.50314E-01  0.00000E+00  0.72838E-01
        0.49951E-01  0.00000E+00  0.79856E-01  0.49623E-01  0.00000E+00  0.86885E-01  0.49292E-01  0.00000E+00  0.93944E-01  0.48969E-01  0.00000E+00  0.10103E+00  0.48642E-01  0.00000E+00  0.10814E+00  0.48320E-01  0.00000E+00  0.11527E+00
        0.48000E-01  0.00000E+00  0.12244E+00  0.47686E-01  0.00000E+00  0.12963E+00  0.47376E-01  0.00000E+00  0.13685E+00  0.47075E-01  0.00000E+00  0.14410E+00  0.46775E-01  0.00000E+00  0.15142E+00  0.46493E-01  0.00000E+00  0.15868E+00
        0.46216E-01  0.00000E+00  0.16604E+00  0.45948E-01  0.00000E+00  0.17355E+00  0.45736E-01  0.00000E+00  0.18055E+00  0.45471E-01  0.00000E+00  0.18854E+00  0.45385E-01  0.00000E+00  0.19584E+00  0.45189E-01  0.00000E+00  0.20188E+00
        0.82993E-01  0.00000E+00  0.36647E-02  0.75093E-01  0.00000E+00  0.93307E-02  0.73449E-01  0.00000E+00  0.17086E-01  0.80476E-01  0.00000E+00  0.23473E-01  0.71600E-01  0.00000E+00  0.28031E-01  0.76933E-01  0.00000E+00  0.35572E-01
        0.68111E-01  0.00000E+00  0.39376E-01  0.69282E-01  0.00000E+00  0.46615E-01  0.66171E-01  0.00000E+00  0.52856E-01  0.65822E-01  0.00000E+00  0.59771E-01  0.65048E-01  0.00000E+00  0.66597E-01  0.64641E-01  0.00000E+00  0.73487E-01
        0.64226E-01  0.00000E+00  0.80444E-01  0.63841E-01  0.00000E+00  0.87419E-01  0.63455E-01  0.00000E+00  0.94432E-01  0.63076E-01  0.00000E+00  0.10148E+00  0.62693E-01  0.00000E+00  0.10856E+00  0.62315E-01  0.00000E+00  0.11567E+00
        0.61937E-01  0.00000E+00  0.12281E+00  0.61564E-01  0.00000E+00  0.12999E+00  0.61196E-01  0.00000E+00  0.13719E+00  0.60836E-01  0.00000E+00  0.14442E+00  0.60481E-01  0.00000E+00  0.15172E+00  0.60144E-01  0.00000E+00  0.15896E+00
        0.59813E-01  0.00000E+00  0.16629E+00  0.59511E-01  0.00000E+00  0.17377E+00  0.59226E-01  0.00000E+00  0.18071E+00  0.58977E-01  0.00000E+00  0.18869E+00  0.58777E-01  0.00000E+00  0.19593E+00  0.58650E-01  0.00000E+00  0.20193E+00
        0.97291E-01  0.00000E+00  0.42148E-02  0.91630E-01  0.00000E+00  0.10911E-01  0.88109E-01  0.00000E+00  0.17971E-01  0.98308E-01  0.00000E+00  0.22816E-01  0.89927E-01  0.00000E+00  0.27927E-01  0.92807E-01  0.00000E+00  0.35670E-01
        0.85181E-01  0.00000E+00  0.40153E-01  0.84034E-01  0.00000E+00  0.47445E-01  0.81256E-01  0.00000E+00  0.53690E-01  0.80407E-01  0.00000E+00  0.60409E-01  0.79658E-01  0.00000E+00  0.67178E-01  0.79118E-01  0.00000E+00  0.73995E-01
        0.78626E-01  0.00000E+00  0.80872E-01  0.78162E-01  0.00000E+00  0.87790E-01  0.77701E-01  0.00000E+00  0.94753E-01  0.77247E-01  0.00000E+00  0.10175E+00  0.76793E-01  0.00000E+00  0.10880E+00  0.76345E-01  0.00000E+00  0.11588E+00
        0.75902E-01  0.00000E+00  0.12300E+00  0.75469E-01  0.00000E+00  0.13015E+00  0.75043E-01  0.00000E+00  0.13733E+00  0.74631E-01  0.00000E+00  0.14454E+00  0.74230E-01  0.00000E+00  0.15181E+00  0.73849E-01  0.00000E+00  0.15902E+00
        0.73485E-01  0.00000E+00  0.16633E+00  0.73149E-01  0.00000E+00  0.17378E+00  0.72852E-01  0.00000E+00  0.18067E+00  0.72583E-01  0.00000E+00  0.18863E+00  0.72427E-01  0.00000E+00  0.19579E+00  0.72241E-01  0.00000E+00  0.20174E+00
        0.10776E+00  0.00000E+00  0.44218E-02  0.11382E+00  0.00000E+00  0.11988E-01  0.10399E+00  0.00000E+00  0.15507E-01  0.11495E+00  0.00000E+00  0.21980E-01  0.10761E+00  0.00000E+00  0.26579E-01  0.10687E+00  0.00000E+00  0.34384E-01
        0.10198E+00  0.00000E+00  0.40619E-01  0.99087E-01  0.00000E+00  0.47569E-01  0.96635E-01  0.00000E+00  0.53965E-01  0.95325E-01  0.00000E+00  0.60543E-01  0.94462E-01  0.00000E+00  0.67291E-01  0.93770E-01  0.00000E+00  0.74079E-01
        0.93176E-01  0.00000E+00  0.80932E-01  0.92613E-01  0.00000E+00  0.87838E-01  0.92061E-01  0.00000E+00  0.94785E-01  0.91522E-01  0.00000E+00  0.10177E+00  0.90989E-01  0.00000E+00  0.10880E+00  0.90467E-01  0.00000E+00  0.11587E+00
        0.89955E-01  0.00000E+00  0.12296E+00  0.89458E-01  0.00000E+00  0.13010E+00  0.88974E-01  0.00000E+00  0.13726E+00  0.88510E-01  0.00000E+00  0.14444E+00  0.88062E-01  0.00000E+00  0.15169E+00  0.87639E-01  0.00000E+00  0.15887E+00
        0.87238E-01  0.00000E+00  0.16615E+00  0.86874E-01  0.00000E+00  0.17357E+00  0.86540E-01  0.00000E+00  0.18042E+00  0.86263E-01  0.00000E+00  0.18837E+00  0.86037E-01  0.00000E+00  0.19549E+00  0.85849E-01  0.00000E+00  0.20142E+00
        0.12033E+00  0.00000E+00  0.39500E-02  0.12834E+00  0.00000E+00  0.11516E-01  0.12440E+00  0.00000E+00  0.18866E-01  0.13486E+00  0.00000E+00  0.22245E-01  0.12632E+00  0.00000E+00  0.28266E-01  0.12046E+00  0.00000E+00  0.33764E-01
        0.11775E+00  0.00000E+00  0.40544E-01  0.11422E+00  0.00000E+00  0.47093E-01  0.11198E+00  0.00000E+00  0.53780E-01  0.11035E+00  0.00000E+00  0.60367E-01  0.10927E+00  0.00000E+00  0.67087E-01  0.10842E+00  0.00000E+00  0.73883E-01
        0.10771E+00  0.00000E+00  0.80730E-01  0.10705E+00  0.00000E+00  0.87631E-01  0.10641E+00  0.00000E+00  0.94574E-01  0.10579E+00  0.00000E+00  0.10155E+00  0.10519E+00  0.00000E+00  0.10857E+00  0.10460E+00  0.00000E+00  0.11563E+00
        0.10402E+00  0.00000E+00  0.12271E+00  0.10347E+00  0.00000E+00  0.12984E+00  0.10293E+00  0.00000E+00  0.13698E+00  0.10242E+00  0.00000E+00  0.14415E+00  0.10192E+00  0.00000E+00  0.15138E+00  0.10146E+00  0.00000E+00  0.15854E+00
        0.10103E+00  0.00000E+00  0.16582E+00  0.10063E+00  0.00000E+00  0.17321E+00  0.10027E+00  0.00000E+00  0.18003E+00  0.99983E-01  0.00000E+00  0.18799E+00  0.99753E-01  0.00000E+00  0.19506E+00  0.99528E-01  0.00000E+00  0.20096E+00
[...]
<PointData>
      <DataArray type="Float32" Name="Velocity vectors"  NumberOfComponents="3"  format="ascii" >
          0.11099E+00  0.00000E+00 -0.14353E-02  0.20594E-01  0.00000E+00 -0.52134E-01 -0.20583E-02  0.00000E+00 -0.49001E-01  0.81837E-02  0.00000E+00 -0.43370E-01 -0.22214E-02  0.00000E+00 -0.37996E-01 -0.32575E-02  0.00000E+00 -0.33548E-01
          0.37399E-02  0.00000E+00 -0.26802E-01  0.13777E-01  0.00000E+00 -0.29767E-01  0.18715E-01  0.00000E+00 -0.39909E-01  0.19959E-01  0.00000E+00 -0.52213E-01  0.17762E-01  0.00000E+00 -0.64294E-01  0.16177E-01  0.00000E+00 -0.76908E-01
          0.15055E-01  0.00000E+00 -0.89282E-01  0.13537E-01  0.00000E+00 -0.10134E+00  0.12202E-01  0.00000E+00 -0.11297E+00  0.11050E-01  0.00000E+00 -0.12421E+00  0.10062E-01  0.00000E+00 -0.13506E+00  0.92319E-02  0.00000E+00 -0.14557E+00
          0.85618E-02  0.00000E+00 -0.15575E+00  0.80205E-02  0.00000E+00 -0.16566E+00  0.75515E-02  0.00000E+00 -0.17532E+00  0.72137E-02  0.00000E+00 -0.18467E+00  0.68569E-02  0.00000E+00 -0.19394E+00  0.64265E-02  0.00000E+00 -0.20291E+00
          0.64613E-02  0.00000E+00 -0.21144E+00  0.58237E-02  0.00000E+00 -0.22051E+00  0.51927E-02  0.00000E+00 -0.22883E+00  0.76758E-02  0.00000E+00 -0.23569E+00  0.35207E-02  0.00000E+00 -0.24511E+00  0.45529E-02  0.00000E+00 -0.25793E+00
          0.56686E-01  0.00000E+00  0.28804E-02  0.13439E-01  0.00000E+00  0.16712E-01  0.64281E-01  0.00000E+00 -0.32557E-01  0.18731E-01  0.00000E+00 -0.14445E-01 -0.14047E-01  0.00000E+00 -0.61312E-01  0.34658E-01  0.00000E+00 -0.43745E-01
         -0.35857E-01  0.00000E+00 -0.69330E-01  0.76475E-01  0.00000E+00 -0.85121E-01  0.27429E-02  0.00000E+00 -0.89623E-01  0.46449E-01  0.00000E+00 -0.95975E-01  0.32313E-01  0.00000E+00 -0.99936E-01  0.34351E-01  0.00000E+00 -0.10478E+00
          0.31998E-01  0.00000E+00 -0.11088E+00  0.30707E-01  0.00000E+00 -0.11701E+00  0.29231E-01  0.00000E+00 -0.12397E+00  0.27928E-01  0.00000E+00 -0.13143E+00  0.26788E-01  0.00000E+00 -0.13926E+00  0.25751E-01  0.00000E+00 -0.14758E+00
          0.24719E-01  0.00000E+00 -0.15608E+00  0.23758E-01  0.00000E+00 -0.16475E+00  0.22807E-01  0.00000E+00 -0.17373E+00  0.21884E-01  0.00000E+00 -0.18235E+00  0.21101E-01  0.00000E+00 -0.19121E+00  0.20232E-01  0.00000E+00 -0.20053E+00
          0.19508E-01  0.00000E+00 -0.20815E+00  0.19273E-01  0.00000E+00 -0.21738E+00  0.17155E-01  0.00000E+00 -0.22760E+00  0.19311E-01  0.00000E+00 -0.23156E+00  0.15729E-01  0.00000E+00 -0.24270E+00  0.17779E-01  0.00000E+00 -0.25550E+00
          0.64034E-01  0.00000E+00 -0.82944E-03  0.72403E-01  0.00000E+00 -0.22520E-02  0.11087E+00  0.00000E+00 -0.22724E-01  0.50151E-01  0.00000E+00 -0.29216E-01  0.26107E-01  0.00000E+00 -0.46450E-01  0.72715E-01  0.00000E+00 -0.59868E-01
          0.47442E-02  0.00000E+00 -0.73556E-01  0.11916E+00  0.00000E+00 -0.85008E-01  0.72938E-02  0.00000E+00 -0.10628E+00  0.61205E-01  0.00000E+00 -0.10964E+00  0.36704E-01  0.00000E+00 -0.11487E+00  0.43727E-01  0.00000E+00 -0.11793E+00
          0.41888E-01  0.00000E+00 -0.12214E+00  0.41994E-01  0.00000E+00 -0.12668E+00  0.41710E-01  0.00000E+00 -0.13206E+00  0.41490E-01  0.00000E+00 -0.13795E+00  0.41015E-01  0.00000E+00 -0.14427E+00  0.40515E-01  0.00000E+00 -0.15118E+00
          0.39846E-01  0.00000E+00 -0.15828E+00  0.39118E-01  0.00000E+00 -0.16572E+00  0.38305E-01  0.00000E+00 -0.17379E+00  0.37431E-01  0.00000E+00 -0.18145E+00  0.36481E-01  0.00000E+00 -0.18970E+00  0.35605E-01  0.00000E+00 -0.19883E+00
          0.34517E-01  0.00000E+00 -0.20577E+00  0.33723E-01  0.00000E+00 -0.21515E+00  0.32702E-01  0.00000E+00 -0.22541E+00  0.32495E-01  0.00000E+00 -0.22923E+00  0.30539E-01  0.00000E+00 -0.24175E+00  0.30936E-01  0.00000E+00 -0.25386E+00
          0.13001E+00  0.00000E+00 -0.46790E-02  0.96276E-01  0.00000E+00 -0.27402E-01  0.13086E+00  0.00000E+00 -0.35882E-01  0.90803E-01  0.00000E+00 -0.21593E-01  0.65307E-01  0.00000E+00 -0.68234E-01  0.99490E-01  0.00000E+00 -0.53863E-01
          0.38242E-01  0.00000E+00 -0.85732E-01  0.14043E+00  0.00000E+00 -0.79532E-01  0.29721E-01  0.00000E+00 -0.10502E+00  0.65000E-01  0.00000E+00 -0.10269E+00  0.46703E-01  0.00000E+00 -0.11068E+00  0.51405E-01  0.00000E+00 -0.11510E+00
          0.50699E-01  0.00000E+00 -0.12025E+00  0.51820E-01  0.00000E+00 -0.12577E+00  0.52313E-01  0.00000E+00 -0.13155E+00  0.52828E-01  0.00000E+00 -0.13757E+00  0.53024E-01  0.00000E+00 -0.14390E+00  0.53123E-01  0.00000E+00 -0.15066E+00
          0.52989E-01  0.00000E+00 -0.15759E+00  0.52727E-01  0.00000E+00 -0.16482E+00  0.52292E-01  0.00000E+00 -0.17271E+00  0.51756E-01  0.00000E+00 -0.18019E+00  0.51046E-01  0.00000E+00 -0.18833E+00  0.50391E-01  0.00000E+00 -0.19744E+00
          0.49518E-01  0.00000E+00 -0.20438E+00  0.48741E-01  0.00000E+00 -0.21403E+00  0.48266E-01  0.00000E+00 -0.22445E+00  0.47149E-01  0.00000E+00 -0.22815E+00  0.47842E-01  0.00000E+00 -0.24130E+00  0.47152E-01  0.00000E+00 -0.25398E+00
          0.16593E+00  0.00000E+00 -0.54347E-03  0.15557E+00  0.00000E+00 -0.17492E-01  0.10033E+00  0.00000E+00 -0.17736E-01  0.12924E+00  0.00000E+00 -0.18211E-01  0.10501E+00  0.00000E+00 -0.37639E-01  0.15954E+00  0.00000E+00 -0.39639E-01
          0.81005E-01  0.00000E+00 -0.87562E-01  0.14391E+00  0.00000E+00 -0.73826E-01  0.53520E-01  0.00000E+00 -0.97633E-01  0.71283E-01  0.00000E+00 -0.94954E-01  0.58638E-01  0.00000E+00 -0.10316E+00  0.62242E-01  0.00000E+00 -0.10889E+00
          0.62458E-01  0.00000E+00 -0.11458E+00  0.63748E-01  0.00000E+00 -0.12108E+00  0.64633E-01  0.00000E+00 -0.12765E+00  0.65555E-01  0.00000E+00 -0.13441E+00  0.66210E-01  0.00000E+00 -0.14144E+00  0.66760E-01  0.00000E+00 -0.14880E+00
          0.67084E-01  0.00000E+00 -0.15624E+00  0.67269E-01  0.00000E+00 -0.16391E+00  0.67239E-01  0.00000E+00 -0.17215E+00  0.67064E-01  0.00000E+00 -0.17990E+00  0.66701E-01  0.00000E+00 -0.18829E+00  0.66231E-01  0.00000E+00 -0.19759E+00
          0.65602E-01  0.00000E+00 -0.20460E+00  0.65031E-01  0.00000E+00 -0.21445E+00  0.64285E-01  0.00000E+00 -0.22496E+00  0.63876E-01  0.00000E+00 -0.22874E+00  0.63010E-01  0.00000E+00 -0.24228E+00  0.63245E-01  0.00000E+00 -0.25447E+00
          0.19101E+00  0.00000E+00 -0.29664E-02  0.15537E+00  0.00000E+00 -0.85003E-02  0.11307E+00  0.00000E+00 -0.23102E-01  0.15862E+00  0.00000E+00 -0.30708E-01  0.14174E+00  0.00000E+00 -0.48970E-01  0.20469E+00  0.00000E+00 -0.43793E-01
          0.13595E+00  0.00000E+00 -0.88658E-01  0.13721E+00  0.00000E+00 -0.72197E-01  0.72104E-01  0.00000E+00 -0.88829E-01  0.76597E-01  0.00000E+00 -0.88150E-01  0.72336E-01  0.00000E+00 -0.95735E-01  0.74019E-01  0.00000E+00 -0.10181E+00
          0.75419E-01  0.00000E+00 -0.10791E+00  0.77208E-01  0.00000E+00 -0.11515E+00  0.78585E-01  0.00000E+00 -0.12249E+00  0.79889E-01  0.00000E+00 -0.13010E+00  0.80869E-01  0.00000E+00 -0.13797E+00  0.81669E-01  0.00000E+00 -0.14610E+00
          0.82196E-01  0.00000E+00 -0.15422E+00  0.82556E-01  0.00000E+00 -0.16248E+00  0.82642E-01  0.00000E+00 -0.17120E+00  0.82602E-01  0.00000E+00 -0.17927E+00  0.82368E-01  0.00000E+00 -0.18799E+00  0.81970E-01  0.00000E+00 -0.19748E+00
          0.81552E-01  0.00000E+00 -0.20453E+00  0.81043E-01  0.00000E+00 -0.21468E+00  0.80504E-01  0.00000E+00 -0.22521E+00  0.80191E-01  0.00000E+00 -0.22883E+00  0.80242E-01  0.00000E+00 -0.24276E+00  0.80068E-01  0.00000E+00 -0.25528E+00
          0.20193E+00  0.00000E+00 -0.26872E-02  0.22299E+00  0.00000E+00 -0.96695E-02  0.15348E+00  0.00000E+00 -0.49949E-01  0.20083E+00  0.00000E+00 -0.30263E-01  0.15252E+00  0.00000E+00 -0.84782E-01  0.20756E+00  0.00000E+00 -0.61850E-01
          0.16814E+00  0.00000E+00 -0.69106E-01  0.13274E+00  0.00000E+00 -0.66386E-01  0.92866E-01  0.00000E+00 -0.76671E-01  0.86047E-01  0.00000E+00 -0.84044E-01  0.86448E-01  0.00000E+00 -0.91513E-01  0.87790E-01  0.00000E+00 -0.98441E-01
          0.90632E-01  0.00000E+00 -0.10575E+00  0.92881E-01  0.00000E+00 -0.11358E+00  0.94674E-01  0.00000E+00 -0.12138E+00  0.96194E-01  0.00000E+00 -0.12939E+00  0.97304E-01  0.00000E+00 -0.13750E+00  0.98155E-01  0.00000E+00 -0.14581E+00
          0.98709E-01  0.00000E+00 -0.15406E+00  0.99097E-01  0.00000E+00 -0.16244E+00  0.99226E-01  0.00000E+00 -0.17129E+00  0.99252E-01  0.00000E+00 -0.17947E+00  0.99111E-01  0.00000E+00 -0.18837E+00  0.98818E-01  0.00000E+00 -0.19803E+00
          0.98512E-01  0.00000E+00 -0.20519E+00  0.98140E-01  0.00000E+00 -0.21557E+00  0.97607E-01  0.00000E+00 -0.22624E+00  0.97513E-01  0.00000E+00 -0.22993E+00  0.96816E-01  0.00000E+00 -0.24410E+00  0.96894E-01  0.00000E+00 -0.25639E+00
          0.22038E+00  0.00000E+00 -0.40943E-02  0.22629E+00  0.00000E+00 -0.87707E-02  0.20197E+00  0.00000E+00 -0.14145E-01  0.27776E+00  0.00000E+00 -0.54970E-01  0.24574E+00  0.00000E+00 -0.41537E-01  0.17581E+00  0.00000E+00 -0.86475E-01
          0.18604E+00  0.00000E+00 -0.66970E-01  0.14223E+00  0.00000E+00 -0.74905E-01  0.12163E+00  0.00000E+00 -0.76692E-01  0.10658E+00  0.00000E+00 -0.87606E-01  0.10431E+00  0.00000E+00 -0.95654E-01  0.10476E+00  0.00000E+00 -0.10252E+00
          0.10721E+00  0.00000E+00 -0.10980E+00  0.10926E+00  0.00000E+00 -0.11707E+00  0.11097E+00  0.00000E+00 -0.12439E+00  0.11239E+00  0.00000E+00 -0.13198E+00  0.11349E+00  0.00000E+00 -0.13972E+00  0.11436E+00  0.00000E+00 -0.14775E+00
          0.11499E+00  0.00000E+00 -0.15579E+00  0.11548E+00  0.00000E+00 -0.16405E+00  0.11571E+00  0.00000E+00 -0.17281E+00  0.11585E+00  0.00000E+00 -0.18092E+00  0.11583E+00  0.00000E+00 -0.18983E+00  0.11559E+00  0.00000E+00 -0.19944E+00
          0.11545E+00  0.00000E+00 -0.20653E+00  0.11512E+00  0.00000E+00 -0.21700E+00  0.11457E+00  0.00000E+00 -0.22755E+00  0.11464E+00  0.00000E+00 -0.23111E+00  0.11412E+00  0.00000E+00 -0.24542E+00  0.11409E+00  0.00000E+00 -0.25773E+00
          0.24067E+00  0.00000E+00 -0.46333E-02  0.23023E+00  0.00000E+00  0.45709E-02  0.27426E+00  0.00000E+00 -0.32462E-01  0.29438E+00  0.00000E+00 -0.11548E-01  0.24788E+00  0.00000E+00 -0.31810E-01  0.20239E+00  0.00000E+00 -0.79079E-01
          0.20625E+00  0.00000E+00 -0.58052E-01  0.13415E+00  0.00000E+00 -0.90158E-01  0.14330E+00  0.00000E+00 -0.83632E-01  0.12202E+00  0.00000E+00 -0.91927E-01  0.11915E+00  0.00000E+00 -0.97401E-01  0.11934E+00  0.00000E+00 -0.10362E+00
          0.12137E+00  0.00000E+00 -0.11015E+00  0.12374E+00  0.00000E+00 -0.11684E+00  0.12595E+00  0.00000E+00 -0.12398E+00  0.12783E+00  0.00000E+00 -0.13148E+00  0.12935E+00  0.00000E+00 -0.13930E+00  0.13058E+00  0.00000E+00 -0.14752E+00
          0.13148E+00  0.00000E+00 -0.15577E+00  0.13220E+00  0.00000E+00 -0.16427E+00  0.13258E+00  0.00000E+00 -0.17326E+00  0.13287E+00  0.00000E+00 -0.18154E+00  0.13297E+00  0.00000E+00 -0.19067E+00  0.13283E+00  0.00000E+00 -0.20043E+00
          0.13278E+00  0.00000E+00 -0.20760E+00  0.13254E+00  0.00000E+00 -0.21826E+00  0.13202E+00  0.00000E+00 -0.22887E+00  0.13216E+00  0.00000E+00 -0.23244E+00  0.13129E+00  0.00000E+00 -0.24690E+00  0.13132E+00  0.00000E+00 -0.25916E+00
          0.24354E+00  0.00000E+00 -0.45575E-02  0.27071E+00  0.00000E+00 -0.14945E-01  0.29843E+00  0.00000E+00 -0.30813E-01  0.26113E+00  0.00000E+00 -0.34338E-01  0.30849E+00  0.00000E+00 -0.16968E-01  0.25888E+00  0.00000E+00 -0.59937E-01
          0.22424E+00  0.00000E+00 -0.54275E-01  0.15896E+00  0.00000E+00 -0.90309E-01  0.15435E+00  0.00000E+00 -0.85816E-01  0.13817E+00  0.00000E+00 -0.95677E-01  0.13261E+00  0.00000E+00 -0.10157E+00  0.13452E+00  0.00000E+00 -0.10738E+00
          0.13660E+00  0.00000E+00 -0.11442E+00  0.13950E+00  0.00000E+00 -0.12123E+00  0.14224E+00  0.00000E+00 -0.12844E+00  0.14454E+00  0.00000E+00 -0.13589E+00  0.14638E+00  0.00000E+00 -0.14353E+00  0.14781E+00  0.00000E+00 -0.15153E+00
          0.14882E+00  0.00000E+00 -0.15951E+00  0.14961E+00  0.00000E+00 -0.16774E+00  0.15004E+00  0.00000E+00 -0.17646E+00  0.15035E+00  0.00000E+00 -0.18448E+00  0.15049E+00  0.00000E+00 -0.19342E+00  0.15035E+00  0.00000E+00 -0.20296E+00
          0.15034E+00  0.00000E+00 -0.20994E+00  0.15010E+00  0.00000E+00 -0.22053E+00  0.14949E+00  0.00000E+00 -0.23091E+00  0.14970E+00  0.00000E+00 -0.23438E+00  0.14871E+00  0.00000E+00 -0.24885E+00  0.14870E+00  0.00000E+00 -0.26090E+00
          0.27864E+00  0.00000E+00 -0.40694E-02  0.31188E+00  0.00000E+00 -0.20999E-01  0.31086E+00  0.00000E+00 -0.12153E-01  0.25978E+00  0.00000E+00 -0.26621E-01  0.33651E+00  0.00000E+00 -0.35449E-01  0.30579E+00  0.00000E+00 -0.63288E-01
          0.27299E+00  0.00000E+00 -0.45580E-01  0.20157E+00  0.00000E+00 -0.84959E-01  0.18237E+00  0.00000E+00 -0.87061E-01  0.15912E+00  0.00000E+00 -0.10133E+00  0.14982E+00  0.00000E+00 -0.10910E+00  0.15093E+00  0.00000E+00 -0.11474E+00
          0.15231E+00  0.00000E+00 -0.12168E+00  0.15495E+00  0.00000E+00 -0.12801E+00  0.15768E+00  0.00000E+00 -0.13456E+00  0.16006E+00  0.00000E+00 -0.14140E+00  0.16204E+00  0.00000E+00 -0.14839E+00  0.16366E+00  0.00000E+00 -0.15578E+00
          0.16488E+00  0.00000E+00 -0.16322E+00  0.16589E+00  0.00000E+00 -0.17101E+00  0.16651E+00  0.00000E+00 -0.17935E+00  0.16704E+00  0.00000E+00 -0.18704E+00  0.16736E+00  0.00000E+00 -0.19578E+00  0.16737E+00  0.00000E+00 -0.20510E+00
          0.16752E+00  0.00000E+00 -0.21190E+00  0.16741E+00  0.00000E+00 -0.22247E+00  0.16683E+00  0.00000E+00 -0.23268E+00  0.16717E+00  0.00000E+00 -0.23608E+00  0.16600E+00  0.00000E+00 -0.25058E+00  0.16605E+00  0.00000E+00 -0.26255E+00
          0.32014E+00  0.00000E+00 -0.28801E-03  0.33013E+00  0.00000E+00 -0.15035E-01  0.33545E+00  0.00000E+00 -0.17279E-01  0.29408E+00  0.00000E+00 -0.27597E-01  0.36802E+00  0.00000E+00 -0.37490E-01  0.33889E+00  0.00000E+00 -0.59604E-01
          0.30318E+00  0.00000E+00 -0.52088E-01  0.24798E+00  0.00000E+00 -0.80318E-01  0.21539E+00  0.00000E+00 -0.82960E-01  0.18344E+00  0.00000E+00 -0.98444E-01  0.16686E+00  0.00000E+00 -0.10924E+00  0.16584E+00  0.00000E+00 -0.11603E+00
          0.16621E+00  0.00000E+00 -0.12362E+00  0.16877E+00  0.00000E+00 -0.13022E+00  0.17175E+00  0.00000E+00 -0.13696E+00  0.17452E+00  0.00000E+00 -0.14397E+00  0.17695E+00  0.00000E+00 -0.15106E+00  0.17903E+00  0.00000E+00 -0.15851E+00
          0.18066E+00  0.00000E+00 -0.16598E+00  0.18204E+00  0.00000E+00 -0.17376E+00  0.18299E+00  0.00000E+00 -0.18204E+00  0.18378E+00  0.00000E+00 -0.18965E+00  0.18435E+00  0.00000E+00 -0.19834E+00  0.18454E+00  0.00000E+00 -0.20752E+00
          0.18485E+00  0.00000E+00 -0.21422E+00  0.18486E+00  0.00000E+00 -0.22476E+00  0.18428E+00  0.00000E+00 -0.23475E+00  0.18473E+00  0.00000E+00 -0.23811E+00  0.18342E+00  0.00000E+00 -0.25262E+00  0.18346E+00  0.00000E+00 -0.26434E+00
          0.34148E+00  0.00000E+00 -0.42635E-03  0.35656E+00  0.00000E+00 -0.17610E-01  0.36400E+00  0.00000E+00 -0.19288E-01  0.32408E+00  0.00000E+00 -0.30238E-01  0.39741E+00  0.00000E+00 -0.43104E-01  0.37302E+00  0.00000E+00 -0.57568E-01
          0.33210E+00  0.00000E+00 -0.53404E-01  0.28128E+00  0.00000E+00 -0.80615E-01  0.24892E+00  0.00000E+00 -0.80826E-01  0.21372E+00  0.00000E+00 -0.95099E-01  0.19161E+00  0.00000E+00 -0.10741E+00  0.18604E+00  0.00000E+00 -0.11593E+00
          0.18368E+00  0.00000E+00 -0.12516E+00  0.18509E+00  0.00000E+00 -0.13261E+00  0.18765E+00  0.00000E+00 -0.13975E+00  0.19028E+00  0.00000E+00 -0.14701E+00  0.19271E+00  0.00000E+00 -0.15416E+00  0.19487E+00  0.00000E+00 -0.16156E+00
          0.19662E+00  0.00000E+00 -0.16891E+00  0.19816E+00  0.00000E+00 -0.17655E+00  0.19926E+00  0.00000E+00 -0.18465E+00  0.20025E+00  0.00000E+00 -0.19207E+00  0.20101E+00  0.00000E+00 -0.20063E+00  0.20135E+00  0.00000E+00 -0.20961E+00
          0.20187E+00  0.00000E+00 -0.21614E+00  0.20202E+00  0.00000E+00 -0.22667E+00  0.20148E+00  0.00000E+00 -0.23643E+00  0.20213E+00  0.00000E+00 -0.23972E+00  0.20072E+00  0.00000E+00 -0.25423E+00  0.20084E+00  0.00000E+00 -0.26582E+00
          0.36939E+00  0.00000E+00 -0.98128E-03  0.38759E+00  0.00000E+00 -0.19432E-01  0.39630E+00  0.00000E+00 -0.20194E-01  0.35451E+00  0.00000E+00 -0.33646E-01  0.42618E+00  0.00000E+00 -0.46117E-01  0.40305E+00  0.00000E+00 -0.57507E-01
          0.36124E+00  0.00000E+00 -0.56513E-01  0.31592E+00  0.00000E+00 -0.80894E-01  0.27941E+00  0.00000E+00 -0.82192E-01  0.24245E+00  0.00000E+00 -0.95629E-01  0.21746E+00  0.00000E+00 -0.10724E+00  0.20804E+00  0.00000E+00 -0.11530E+00
          0.20218E+00  0.00000E+00 -0.12510E+00  0.20164E+00  0.00000E+00 -0.13307E+00  0.20323E+00  0.00000E+00 -0.14046E+00  0.20545E+00  0.00000E+00 -0.14792E+00  0.20783E+00  0.00000E+00 -0.15518E+00  0.21012E+00  0.00000E+00 -0.16266E+00
          0.21209E+00  0.00000E+00 -0.17007E+00  0.21392E+00  0.00000E+00 -0.17780E+00  0.21532E+00  0.00000E+00 -0.18595E+00  0.21661E+00  0.00000E+00 -0.19340E+00  0.21766E+00  0.00000E+00 -0.20206E+00  0.21824E+00  0.00000E+00 -0.21104E+00
          0.21899E+00  0.00000E+00 -0.21757E+00  0.21934E+00  0.00000E+00 -0.22820E+00  0.21885E+00  0.00000E+00 -0.23784E+00  0.21968E+00  0.00000E+00 -0.24114E+00  0.21817E+00  0.00000E+00 -0.25574E+00  0.21833E+00  0.00000E+00 -0.26716E+00
          0.40180E+00  0.00000E+00 -0.13924E-02  0.42267E+00  0.00000E+00 -0.21154E-01  0.43193E+00  0.00000E+00 -0.19528E-01  0.38600E+00  0.00000E+00 -0.37680E-01  0.45259E+00  0.00000E+00 -0.46944E-01  0.42982E+00  0.00000E+00 -0.58041E-01
          0.38909E+00  0.00000E+00 -0.58210E-01  0.34834E+00  0.00000E+00 -0.80196E-01  0.30896E+00  0.00000E+00 -0.82261E-01  0.26960E+00  0.00000E+00 -0.95361E-01  0.24273E+00  0.00000E+00 -0.10664E+00  0.23092E+00  0.00000E+00 -0.11443E+00
          0.22237E+00  0.00000E+00 -0.12435E+00  0.22001E+00  0.00000E+00 -0.13269E+00  0.22045E+00  0.00000E+00 -0.14047E+00  0.22206E+00  0.00000E+00 -0.14829E+00  0.22421E+00  0.00000E+00 -0.15584E+00  0.22646E+00  0.00000E+00 -0.16352E+00
          0.22849E+00  0.00000E+00 -0.17109E+00  0.23045E+00  0.00000E+00 -0.17894E+00  0.23198E+00  0.00000E+00 -0.18714E+00  0.23342E+00  0.00000E+00 -0.19461E+00  0.23463E+00  0.00000E+00 -0.20333E+00  0.23533E+00  0.00000E+00 -0.21224E+00
          0.23625E+00  0.00000E+00 -0.21872E+00  0.23671E+00  0.00000E+00 -0.22944E+00  0.23623E+00  0.00000E+00 -0.23890E+00  0.23728E+00  0.00000E+00 -0.24217E+00  0.23562E+00  0.00000E+00 -0.25686E+00  0.23587E+00  0.00000E+00 -0.26812E+00
          0.43798E+00  0.00000E+00 -0.16988E-02  0.46043E+00  0.00000E+00 -0.22457E-01  0.47086E+00  0.00000E+00 -0.16747E-01  0.41943E+00  0.00000E+00 -0.43317E-01  0.47377E+00  0.00000E+00 -0.44661E-01  0.45243E+00  0.00000E+00 -0.58398E-01
          0.41530E+00  0.00000E+00 -0.57827E-01  0.37852E+00  0.00000E+00 -0.78447E-01  0.33782E+00  0.00000E+00 -0.81500E-01  0.29673E+00  0.00000E+00 -0.94590E-01  0.26777E+00  0.00000E+00 -0.10597E+00  0.25378E+00  0.00000E+00 -0.11364E+00
          0.24291E+00  0.00000E+00 -0.12355E+00  0.23890E+00  0.00000E+00 -0.13190E+00  0.23811E+00  0.00000E+00 -0.13981E+00  0.23894E+00  0.00000E+00 -0.14778E+00  0.24068E+00  0.00000E+00 -0.15550E+00  0.24277E+00  0.00000E+00 -0.16331E+00
          0.24480E+00  0.00000E+00 -0.17099E+00  0.24687E+00  0.00000E+00 -0.17897E+00  0.24855E+00  0.00000E+00 -0.18727E+00  0.25020E+00  0.00000E+00 -0.19480E+00  0.25163E+00  0.00000E+00 -0.20369E+00  0.25250E+00  0.00000E+00 -0.21264E+00
          0.25362E+00  0.00000E+00 -0.21915E+00  0.25427E+00  0.00000E+00 -0.23009E+00  0.25380E+00  0.00000E+00 -0.23944E+00  0.25506E+00  0.00000E+00 -0.24273E+00  0.25327E+00  0.00000E+00 -0.25761E+00  0.25360E+00  0.00000E+00 -0.26877E+00
          0.47691E+00  0.00000E+00 -0.19117E-02  0.49792E+00  0.00000E+00 -0.22557E-01  0.51199E+00  0.00000E+00 -0.98899E-02  0.45491E+00  0.00000E+00 -0.49017E-01  0.48692E+00  0.00000E+00 -0.37968E-01  0.46948E+00  0.00000E+00 -0.57594E-01