<?xml version="1.0"?>
<VTKFile type="UnstructuredGrid" version="0.1" byte_order="LittleEndian" compressor="vtkZLibDataCompressor">
<UnstructuredGrid>
  <Piece NumberOfPoints="1800"        NumberOfCells="1"      >
    <Points>
      <DataArray type="Float32" NumberOfComponents="3" format="ascii" >
        0.50363E-02  0.00000E+00  0.48493E-02  0.50130E-02  0.00000E+00  0.14904E-01  0.50639E-02  0.00000E+00  0.24678E-01  0.50286E-02  0.00000E+00  0.34571E-01  0.50353E-02  0.00000E+00  0.44440E-01  0.50308E-02  0.00000E+00  0.54318E-01
        0.50291E-02  0.00000E+00  0.64200E-01  0.50271E-02  0.00000E+00  0.74084E-01  0.50250E-02  0.00000E+00  0.83974E-01  0.50232E-02  0.00000E+00  0.93866E-01  0.50211E-02  0.00000E+00  0.10376E+00  0.50192E-02  0.00000E+00  0.11366E+00
        0.50171E-02  0.00000E+00  0.12357E+00  0.50152E-02  0.00000E+00  0.13347E+00  0.50131E-02  0.00000E+00  0.14339E+00  0.50111E-02  0.00000E+00  0.15330E+00  0.50091E-02  0.00000E+00  0.16322E+00  0.50072E-02  0.00000E+00  0.17315E+00
        0.50053E-02  0.00000E+00  0.18308E+00  0.50035E-02  0.00000E+00  0.19302E+00  0.50018E-02  0.00000E+00  0.20296E+00  0.50002E-02  0.00000E+00  0.21291E+00  0.49990E-02  0.00000E+00  0.22286E+00  0.49979E-02  0.00000E+00  0.23281E+00
        0.49977E-02  0.00000E+00  0.24278E+00  0.49967E-02  0.00000E+00  0.25274E+00  0.49991E-02  0.00000E+00  0.26272E+00  0.49978E-02  0.00000E+00  0.27268E+00  0.50048E-02  0.00000E+00  0.28268E+00  0.50132E-02  0.00000E+00  0.29260E+00
        0.15326E-01  0.00000E+00  0.49144E-02  0.15213E-01  0.00000E+00  0.14871E-01  0.15231E-01  0.00000E+00  0.24652E-01  0.15226E-01  0.00000E+00  0.34577E-01  0.15222E-01  0.00000E+00  0.44434E-01  0.15217E-01  0.00000E+00  0.54311E-01
        0.15211E-01  0.00000E+00  0.64189E-01  0.15206E-01  0.00000E+00  0.74068E-01  0.15200E-01  0.00000E+00  0.83954E-01  0.15194E-01  0.00000E+00  0.93841E-01  0.15188E-01  0.00000E+00  0.10373E+00  0.15182E-01  0.00000E+00  0.11363E+00
        0.15175E-01  0.00000E+00  0.12353E+00  0.15168E-01  0.00000E+00  0.13343E+00  0.15161E-01  0.00000E+00  0.14334E+00  0.15154E-01  0.00000E+00  0.15325E+00  0.15146E-01  0.00000E+00  0.16317E+00  0.15138E-01  0.00000E+00  0.17309E+00
        0.15130E-01  0.00000E+00  0.18302E+00  0.15122E-01  0.00000E+00  0.19295E+00  0.15113E-01  0.00000E+00  0.20289E+00  0.15104E-01  0.00000E+00  0.21284E+00  0.15095E-01  0.00000E+00  0.22278E+00  0.15085E-01  0.00000E+00  0.23274E+00
        0.15076E-01  0.00000E+00  0.24270E+00  0.15065E-01  0.00000E+00  0.25266E+00  0.15057E-01  0.00000E+00  0.26264E+00  0.15046E-01  0.00000E+00  0.27261E+00  0.15043E-01  0.00000E+00  0.28259E+00  0.15035E-01  0.00000E+00  0.29259E+00
        0.25340E-01  0.00000E+00  0.49861E-02  0.25265E-01  0.00000E+00  0.14936E-01  0.25274E-01  0.00000E+00  0.24723E-01  0.25263E-01  0.00000E+00  0.34629E-01  0.25259E-01  0.00000E+00  0.44483E-01  0.25253E-01  0.00000E+00  0.54360E-01
        0.25245E-01  0.00000E+00  0.64237E-01  0.25237E-01  0.00000E+00  0.74113E-01  0.25229E-01  0.00000E+00  0.83996E-01  0.25220E-01  0.00000E+00  0.93880E-01  0.25211E-01  0.00000E+00  0.10377E+00  0.25202E-01  0.00000E+00  0.11366E+00
        0.25192E-01  0.00000E+00  0.12356E+00  0.25182E-01  0.00000E+00  0.13346E+00  0.25172E-01  0.00000E+00  0.14336E+00  0.25161E-01  0.00000E+00  0.15327E+00  0.25150E-01  0.00000E+00  0.16319E+00  0.25139E-01  0.00000E+00  0.17311E+00
        0.25128E-01  0.00000E+00  0.18304E+00  0.25116E-01  0.00000E+00  0.19297E+00  0.25105E-01  0.00000E+00  0.20290E+00  0.25093E-01  0.00000E+00  0.21284E+00  0.25082E-01  0.00000E+00  0.22279E+00  0.25071E-01  0.00000E+00  0.23275E+00
        0.25060E-01  0.00000E+00  0.24271E+00  0.25051E-01  0.00000E+00  0.25267E+00  0.25043E-01  0.00000E+00  0.26264E+00  0.25036E-01  0.00000E+00  0.27262E+00  0.25037E-01  0.00000E+00  0.28261E+00  0.25039E-01  0.00000E+00  0.29258E+00
        0.35458E-01  0.00000E+00  0.49365E-02  0.35446E-01  0.00000E+00  0.14931E-01  0.35440E-01  0.00000E+00  0.24723E-01  0.35436E-01  0.00000E+00  0.34639E-01  0.35430E-01  0.00000E+00  0.44496E-01  0.35422E-01  0.00000E+00  0.54373E-01
        0.35412E-01  0.00000E+00  0.64249E-01  0.35403E-01  0.00000E+00  0.74124E-01  0.35391E-01  0.00000E+00  0.84005E-01  0.35380E-01  0.00000E+00  0.93887E-01  0.35368E-01  0.00000E+00  0.10377E+00  0.35355E-01  0.00000E+00  0.11366E+00
        0.35341E-01  0.00000E+00  0.12356E+00  0.35327E-01  0.00000E+00  0.13346E+00  0.35312E-01  0.00000E+00  0.14336E+00  0.35297E-01  0.00000E+00  0.15327E+00  0.35281E-01  0.00000E+00  0.16318E+00  0.35264E-01  0.00000E+00  0.17310E+00
        0.35247E-01  0.00000E+00  0.18302E+00  0.35230E-01  0.00000E+00  0.19295E+00  0.35212E-01  0.00000E+00  0.20288E+00  0.35193E-01  0.00000E+00  0.21282E+00  0.35175E-01  0.00000E+00  0.22277E+00  0.35155E-01  0.00000E+00  0.23272E+00
        0.35137E-01  0.00000E+00  0.24268E+00  0.35117E-01  0.00000E+00  0.25264E+00  0.35100E-01  0.00000E+00  0.26261E+00  0.35083E-01  0.00000E+00  0.27259E+00  0.35069E-01  0.00000E+00  0.28257E+00  0.35060E-01  0.00000E+00  0.29255E+00
        0.45551E-01  0.00000E+00  0.49472E-02  0.45545E-01  0.00000E+00  0.14931E-01  0.45543E-01  0.00000E+00  0.24725E-01  0.45541E-01  0.00000E+00  0.34641E-01  0.45535E-01  0.00000E+00  0.44499E-01  0.45527E-01  0.00000E+00  0.54376E-01
        0.45515E-01  0.00000E+00  0.64251E-01  0.45502E-01  0.00000E+00  0.74125E-01  0.45488E-01  0.00000E+00  0.84005E-01  0.45473E-01  0.00000E+00  0.93886E-01  0.45456E-01  0.00000E+00  0.10377E+00  0.45439E-01  0.00000E+00  0.11366E+00
        0.45421E-01  0.00000E+00  0.12355E+00  0.45401E-01  0.00000E+00  0.13345E+00  0.45381E-01  0.00000E+00  0.14335E+00  0.45361E-01  0.00000E+00  0.15326E+00  0.45339E-01  0.00000E+00  0.16317E+00  0.45317E-01  0.00000E+00  0.17308E+00
        0.45294E-01  0.00000E+00  0.18301E+00  0.45270E-01  0.00000E+00  0.19293E+00  0.45246E-01  0.00000E+00  0.20287E+00  0.45222E-01  0.00000E+00  0.21281E+00  0.45197E-01  0.00000E+00  0.22275E+00  0.45173E-01  0.00000E+00  0.23270E+00
        0.45149E-01  0.00000E+00  0.24266E+00  0.45126E-01  0.00000E+00  0.25262E+00  0.45105E-01  0.00000E+00  0.26260E+00  0.45087E-01  0.00000E+00  0.27257E+00  0.45076E-01  0.00000E+00  0.28256E+00  0.45072E-01  0.00000E+00  0.29253E+00
        0.55656E-01  0.00000E+00  0.49425E-02  0.55665E-01  0.00000E+00  0.14929E-01  0.55672E-01  0.00000E+00  0.24725E-01  0.55672E-01  0.00000E+00  0.34640E-01  0.55667E-01  0.00000E+00  0.44496E-01  0.55658E-01  0.00000E+00  0.54372E-01
        0.55646E-01  0.00000E+00  0.64246E-01  0.55632E-01  0.00000E+00  0.74119E-01  0.55616E-01  0.00000E+00  0.83998E-01  0.55598E-01  0.00000E+00  0.93877E-01  0.55579E-01  0.00000E+00  0.10376E+00  0.55558E-01  0.00000E+00  0.11365E+00
        0.55537E-01  0.00000E+00  0.12354E+00  0.55514E-01  0.00000E+00  0.13343E+00  0.55490E-01  0.00000E+00  0.14333E+00  0.55465E-01  0.00000E+00  0.15324E+00  0.55439E-01  0.00000E+00  0.16315E+00  0.55412E-01  0.00000E+00  0.17306E+00
        0.55384E-01  0.00000E+00  0.18298E+00  0.55356E-01  0.00000E+00  0.19291E+00  0.55326E-01  0.00000E+00  0.20284E+00  0.55296E-01  0.00000E+00  0.21278E+00  0.55266E-01  0.00000E+00  0.22272E+00  0.55236E-01  0.00000E+00  0.23267E+00
        0.55205E-01  0.00000E+00  0.24263E+00  0.55175E-01  0.00000E+00  0.25259E+00  0.55147E-01  0.00000E+00  0.26256E+00  0.55122E-01  0.00000E+00  0.27253E+00  0.55101E-01  0.00000E+00  0.28252E+00  0.55090E-01  0.00000E+00  0.29250E+00
        0.65765E-01  0.00000E+00  0.49418E-02  0.65783E-01  0.00000E+00  0.14925E-01  0.65796E-01  0.00000E+00  0.24719E-01  0.65799E-01  0.00000E+00  0.34633E-01  0.65795E-01  0.00000E+00  0.44488E-01  0.65785E-01  0.00000E+00  0.54362E-01
        0.65772E-01  0.00000E+00  0.64235E-01  0.65755E-01  0.00000E+00  0.74106E-01  0.65736E-01  0.00000E+00  0.83984E-01  0.65715E-01  0.00000E+00  0.93861E-01  0.65692E-01  0.00000E+00  0.10374E+00  0.65667E-01  0.00000E+00  0.11363E+00
        0.65640E-01  0.00000E+00  0.12352E+00  0.65613E-01  0.00000E+00  0.13341E+00  0.65583E-01  0.00000E+00  0.14331E+00  0.65553E-01  0.00000E+00  0.15321E+00  0.65521E-01  0.00000E+00  0.16312E+00  0.65488E-01  0.00000E+00  0.17303E+00
        0.65453E-01  0.00000E+00  0.18295E+00  0.65418E-01  0.00000E+00  0.19288E+00  0.65382E-01  0.00000E+00  0.20281E+00  0.65346E-01  0.00000E+00  0.21275E+00  0.65308E-01  0.00000E+00  0.22269E+00  0.65271E-01  0.00000E+00  0.23264E+00
        0.65234E-01  0.00000E+00  0.24260E+00  0.65198E-01  0.00000E+00  0.25256E+00  0.65165E-01  0.00000E+00  0.26253E+00  0.65136E-01  0.00000E+00  0.27250E+00  0.65115E-01  0.00000E+00  0.28249E+00  0.65104E-01  0.00000E+00  0.29246E+00
        0.75878E-01  0.00000E+00  0.49404E-02  0.75904E-01  0.00000E+00  0.14922E-01  0.75922E-01  0.00000E+00  0.24713E-01  0.75928E-01  0.00000E+00  0.34625E-01  0.75925E-01  0.00000E+00  0.44478E-01  0.75915E-01  0.00000E+00  0.54351E-01
        0.75900E-01  0.00000E+00  0.64221E-01  0.75882E-01  0.00000E+00  0.74090E-01  0.75860E-01  0.00000E+00  0.83966E-01  0.75836E-01  0.00000E+00  0.93841E-01  0.75810E-01  0.00000E+00  0.10372E+00  0.75782E-01  0.00000E+00  0.11360E+00
        0.75751E-01  0.00000E+00  0.12349E+00  0.75719E-01  0.00000E+00  0.13338E+00  0.75686E-01  0.00000E+00  0.14328E+00  0.75650E-01  0.00000E+00  0.15318E+00  0.75613E-01  0.00000E+00  0.16309E+00  0.75575E-01  0.00000E+00  0.17300E+00
        0.75536E-01  0.00000E+00  0.18292E+00  0.75495E-01  0.00000E+00  0.19284E+00  0.75454E-01  0.00000E+00  0.20277E+00  0.75411E-01  0.00000E+00  0.21271E+00  0.75368E-01  0.00000E+00  0.22265E+00  0.75325E-01  0.00000E+00  0.23260E+00
        0.75282E-01  0.00000E+00  0.24255E+00  0.75240E-01  0.00000E+00  0.25251E+00  0.75200E-01  0.00000E+00  0.26248E+00  0.75165E-01  0.00000E+00  0.27246E+00  0.75137E-01  0.00000E+00  0.28244E+00  0.75122E-01  0.00000E+00  0.29241E+00
[...]
<PointData>
      <DataArray type="Float32" Name="Velocity vectors"  NumberOfComponents="3"  format="ascii" >
         -0.74824E-03  0.00000E+00 -0.49741E-02 -0.94248E-03  0.00000E+00 -0.80235E-02 -0.16729E-02  0.00000E+00 -0.10898E-01 -0.12629E-02  0.00000E+00 -0.15000E-01 -0.13929E-02  0.00000E+00 -0.18353E-01 -0.12277E-02  0.00000E+00 -0.22232E-01
         -0.13281E-02  0.00000E+00 -0.25756E-01 -0.13008E-02  0.00000E+00 -0.29329E-01 -0.13417E-02  0.00000E+00 -0.32785E-01 -0.13736E-02  0.00000E+00 -0.36126E-01 -0.13999E-02  0.00000E+00 -0.39413E-01 -0.14392E-02  0.00000E+00 -0.42578E-01
         -0.14644E-02  0.00000E+00 -0.45681E-01 -0.14922E-02  0.00000E+00 -0.48678E-01 -0.15078E-02  0.00000E+00 -0.51589E-01 -0.15169E-02  0.00000E+00 -0.54396E-01 -0.15144E-02  0.00000E+00 -0.57096E-01 -0.15028E-02  0.00000E+00 -0.59682E-01
         -0.14777E-02  0.00000E+00 -0.62142E-01 -0.14425E-02  0.00000E+00 -0.64479E-01 -0.13865E-02  0.00000E+00 -0.66671E-01 -0.13182E-02  0.00000E+00 -0.68729E-01 -0.12234E-02  0.00000E+00 -0.70610E-01 -0.11120E-02  0.00000E+00 -0.72331E-01
         -0.97218E-03  0.00000E+00 -0.73839E-01 -0.81726E-03  0.00000E+00 -0.75182E-01 -0.60450E-03  0.00000E+00 -0.76246E-01 -0.51733E-03  0.00000E+00 -0.77352E-01  0.32154E-04  0.00000E+00 -0.77603E-01  0.13254E-03  0.00000E+00 -0.79744E-01
          0.95760E-04  0.00000E+00 -0.27794E-02 -0.57221E-03  0.00000E+00 -0.61538E-02 -0.13057E-02  0.00000E+00 -0.10646E-01 -0.10189E-02  0.00000E+00 -0.15415E-01 -0.10696E-02  0.00000E+00 -0.18445E-01 -0.98546E-03  0.00000E+00 -0.22724E-01
         -0.10319E-02  0.00000E+00 -0.26187E-01 -0.10747E-02  0.00000E+00 -0.29907E-01 -0.11388E-02  0.00000E+00 -0.33466E-01 -0.12204E-02  0.00000E+00 -0.36894E-01 -0.12972E-02  0.00000E+00 -0.40321E-01 -0.13811E-02  0.00000E+00 -0.43585E-01
         -0.14548E-02  0.00000E+00 -0.46824E-01 -0.15228E-02  0.00000E+00 -0.49940E-01 -0.15731E-02  0.00000E+00 -0.52985E-01 -0.16101E-02  0.00000E+00 -0.55924E-01 -0.16271E-02  0.00000E+00 -0.58758E-01 -0.16269E-02  0.00000E+00 -0.61483E-01
         -0.16034E-02  0.00000E+00 -0.64079E-01 -0.15573E-02  0.00000E+00 -0.66562E-01 -0.14822E-02  0.00000E+00 -0.68887E-01 -0.13825E-02  0.00000E+00 -0.71089E-01 -0.12428E-02  0.00000E+00 -0.73089E-01 -0.10793E-02  0.00000E+00 -0.74944E-01
         -0.87147E-03  0.00000E+00 -0.76544E-01 -0.64247E-03  0.00000E+00 -0.78003E-01 -0.36964E-03  0.00000E+00 -0.79145E-01 -0.10609E-03  0.00000E+00 -0.80241E-01  0.28620E-03  0.00000E+00 -0.81073E-01  0.19879E-03  0.00000E+00 -0.81219E-01
          0.10462E-02  0.00000E+00 -0.29612E-02 -0.96762E-03  0.00000E+00 -0.58615E-02 -0.20056E-02  0.00000E+00 -0.10154E-01 -0.18525E-02  0.00000E+00 -0.14501E-01 -0.17928E-02  0.00000E+00 -0.17710E-01 -0.18206E-02  0.00000E+00 -0.22114E-01
         -0.18138E-02  0.00000E+00 -0.25542E-01 -0.19201E-02  0.00000E+00 -0.29369E-01 -0.20145E-02  0.00000E+00 -0.32965E-01 -0.21390E-02  0.00000E+00 -0.36455E-01 -0.22713E-02  0.00000E+00 -0.39958E-01 -0.23983E-02  0.00000E+00 -0.43278E-01
         -0.25238E-02  0.00000E+00 -0.46593E-01 -0.26308E-02  0.00000E+00 -0.49768E-01 -0.27214E-02  0.00000E+00 -0.52880E-01 -0.27858E-02  0.00000E+00 -0.55878E-01 -0.28253E-02  0.00000E+00 -0.58770E-01 -0.28325E-02  0.00000E+00 -0.61551E-01
         -0.28083E-02  0.00000E+00 -0.64200E-01 -0.27445E-02  0.00000E+00 -0.66734E-01 -0.26423E-02  0.00000E+00 -0.69100E-01 -0.24922E-02  0.00000E+00 -0.71346E-01 -0.22971E-02  0.00000E+00 -0.73371E-01 -0.20463E-02  0.00000E+00 -0.75265E-01
         -0.17454E-02  0.00000E+00 -0.76874E-01 -0.13761E-02  0.00000E+00 -0.78355E-01 -0.93206E-03  0.00000E+00 -0.79547E-01 -0.44875E-03  0.00000E+00 -0.80531E-01  0.22721E-03  0.00000E+00 -0.81461E-01  0.93896E-03  0.00000E+00 -0.82281E-01
          0.76372E-03  0.00000E+00 -0.26788E-02 -0.17748E-02  0.00000E+00 -0.55097E-02 -0.26711E-02  0.00000E+00 -0.97395E-02 -0.25469E-02  0.00000E+00 -0.14020E-01 -0.25046E-02  0.00000E+00 -0.17371E-01 -0.24626E-02  0.00000E+00 -0.21641E-01
         -0.24747E-02  0.00000E+00 -0.25129E-01 -0.26033E-02  0.00000E+00 -0.28998E-01 -0.27052E-02  0.00000E+00 -0.32599E-01 -0.28665E-02  0.00000E+00 -0.36149E-01 -0.30235E-02  0.00000E+00 -0.39679E-01 -0.31819E-02  0.00000E+00 -0.43039E-01
         -0.33350E-02  0.00000E+00 -0.46390E-01 -0.34644E-02  0.00000E+00 -0.49591E-01 -0.35722E-02  0.00000E+00 -0.52731E-01 -0.36447E-02  0.00000E+00 -0.55746E-01 -0.36814E-02  0.00000E+00 -0.58655E-01 -0.36733E-02  0.00000E+00 -0.61446E-01
         -0.36184E-02  0.00000E+00 -0.64100E-01 -0.35090E-02  0.00000E+00 -0.66634E-01 -0.33429E-02  0.00000E+00 -0.68997E-01 -0.31146E-02  0.00000E+00 -0.71234E-01 -0.28193E-02  0.00000E+00 -0.73250E-01 -0.24571E-02  0.00000E+00 -0.75133E-01
         -0.20179E-02  0.00000E+00 -0.76741E-01 -0.15167E-02  0.00000E+00 -0.78210E-01 -0.90070E-03  0.00000E+00 -0.79404E-01 -0.21037E-03  0.00000E+00 -0.80497E-01  0.50323E-03  0.00000E+00 -0.81270E-01  0.12726E-02  0.00000E+00 -0.82044E-01
          0.16280E-02  0.00000E+00 -0.26327E-02 -0.77177E-03  0.00000E+00 -0.54551E-02 -0.18888E-02  0.00000E+00 -0.95383E-02 -0.18591E-02  0.00000E+00 -0.13807E-01 -0.17543E-02  0.00000E+00 -0.17196E-01 -0.17001E-02  0.00000E+00 -0.21393E-01
         -0.17655E-02  0.00000E+00 -0.24968E-01 -0.18976E-02  0.00000E+00 -0.28822E-01 -0.20418E-02  0.00000E+00 -0.32445E-01 -0.22476E-02  0.00000E+00 -0.36034E-01 -0.24469E-02  0.00000E+00 -0.39566E-01 -0.26598E-02  0.00000E+00 -0.42953E-01
         -0.28639E-02  0.00000E+00 -0.46309E-01 -0.30479E-02  0.00000E+00 -0.49515E-01 -0.32089E-02  0.00000E+00 -0.52653E-01 -0.33332E-02  0.00000E+00 -0.55658E-01 -0.34188E-02  0.00000E+00 -0.58554E-01 -0.34572E-02  0.00000E+00 -0.61323E-01
         -0.34444E-02  0.00000E+00 -0.63953E-01 -0.33759E-02  0.00000E+00 -0.66453E-01 -0.32444E-02  0.00000E+00 -0.68782E-01 -0.30496E-02  0.00000E+00 -0.70976E-01 -0.27788E-02  0.00000E+00 -0.72952E-01 -0.24384E-02  0.00000E+00 -0.74788E-01
         -0.20024E-02  0.00000E+00 -0.76358E-01 -0.14869E-02  0.00000E+00 -0.77797E-01 -0.85166E-03  0.00000E+00 -0.78919E-01 -0.56210E-04  0.00000E+00 -0.80003E-01  0.85483E-03  0.00000E+00 -0.80727E-01  0.16830E-02  0.00000E+00 -0.81637E-01
          0.22520E-02  0.00000E+00 -0.23089E-02 -0.73771E-03  0.00000E+00 -0.52750E-02 -0.20481E-02  0.00000E+00 -0.94061E-02 -0.19135E-02  0.00000E+00 -0.13563E-01 -0.17557E-02  0.00000E+00 -0.17042E-01 -0.17167E-02  0.00000E+00 -0.21223E-01
         -0.17655E-02  0.00000E+00 -0.24852E-01 -0.19049E-02  0.00000E+00 -0.28709E-01 -0.20771E-02  0.00000E+00 -0.32365E-01 -0.23027E-02  0.00000E+00 -0.35977E-01 -0.25339E-02  0.00000E+00 -0.39512E-01 -0.27802E-02  0.00000E+00 -0.42917E-01
         -0.30177E-02  0.00000E+00 -0.46267E-01 -0.32351E-02  0.00000E+00 -0.49468E-01 -0.34273E-02  0.00000E+00 -0.52592E-01 -0.35778E-02  0.00000E+00 -0.55574E-01 -0.36843E-02  0.00000E+00 -0.58445E-01 -0.37356E-02  0.00000E+00 -0.61180E-01
         -0.37272E-02  0.00000E+00 -0.63774E-01 -0.36528E-02  0.00000E+00 -0.66231E-01 -0.35049E-02  0.00000E+00 -0.68518E-01 -0.32806E-02  0.00000E+00 -0.70663E-01 -0.29696E-02  0.00000E+00 -0.72596E-01 -0.25720E-02  0.00000E+00 -0.74387E-01
         -0.20714E-02  0.00000E+00 -0.75916E-01 -0.14609E-02  0.00000E+00 -0.77335E-01 -0.72186E-03  0.00000E+00 -0.78436E-01  0.16969E-03  0.00000E+00 -0.79512E-01  0.11949E-02  0.00000E+00 -0.80223E-01  0.21328E-02  0.00000E+00 -0.81119E-01
          0.37081E-02  0.00000E+00 -0.22538E-02  0.57782E-03  0.00000E+00 -0.51889E-02 -0.66855E-03  0.00000E+00 -0.92345E-02 -0.51682E-03  0.00000E+00 -0.13386E-01 -0.36097E-03  0.00000E+00 -0.17018E-01 -0.30045E-03  0.00000E+00 -0.21151E-01
         -0.35337E-03  0.00000E+00 -0.24858E-01 -0.51911E-03  0.00000E+00 -0.28737E-01 -0.71409E-03  0.00000E+00 -0.32422E-01 -0.97070E-03  0.00000E+00 -0.36061E-01 -0.12402E-02  0.00000E+00 -0.39606E-01 -0.15269E-02  0.00000E+00 -0.43024E-01
         -0.18077E-02  0.00000E+00 -0.46366E-01 -0.20725E-02  0.00000E+00 -0.49559E-01 -0.23135E-02  0.00000E+00 -0.52661E-01 -0.25158E-02  0.00000E+00 -0.55614E-01 -0.26761E-02  0.00000E+00 -0.58450E-01 -0.27833E-02  0.00000E+00 -0.61142E-01
         -0.28326E-02  0.00000E+00 -0.63689E-01 -0.28174E-02  0.00000E+00 -0.66092E-01 -0.27310E-02  0.00000E+00 -0.68323E-01 -0.25691E-02  0.00000E+00 -0.70406E-01 -0.23224E-02  0.00000E+00 -0.72281E-01 -0.19882E-02  0.00000E+00 -0.74012E-01
         -0.15491E-02  0.00000E+00 -0.75486E-01 -0.99597E-03  0.00000E+00 -0.76850E-01 -0.28587E-03  0.00000E+00 -0.77907E-01  0.60536E-03  0.00000E+00 -0.78954E-01  0.16631E-02  0.00000E+00 -0.79611E-01  0.26519E-02  0.00000E+00 -0.80598E-01
          0.53862E-02  0.00000E+00 -0.20408E-02  0.18435E-02  0.00000E+00 -0.50993E-02  0.53600E-03  0.00000E+00 -0.91768E-02  0.71486E-03  0.00000E+00 -0.13308E-01  0.92433E-03  0.00000E+00 -0.17024E-01  0.99739E-03  0.00000E+00 -0.21129E-01
          0.92969E-03  0.00000E+00 -0.24928E-01  0.75408E-03  0.00000E+00 -0.28816E-01  0.53656E-03  0.00000E+00 -0.32534E-01  0.24901E-03  0.00000E+00 -0.36202E-01 -0.55030E-04  0.00000E+00 -0.39752E-01 -0.38085E-03  0.00000E+00 -0.43180E-01
         -0.70546E-03  0.00000E+00 -0.46509E-01 -0.10171E-02  0.00000E+00 -0.49689E-01 -0.13076E-02  0.00000E+00 -0.52765E-01 -0.15618E-02  0.00000E+00 -0.55685E-01 -0.17755E-02  0.00000E+00 -0.58482E-01 -0.19371E-02  0.00000E+00 -0.61125E-01
         -0.20417E-02  0.00000E+00 -0.63623E-01 -0.20815E-02  0.00000E+00 -0.65968E-01 -0.20497E-02  0.00000E+00 -0.68142E-01 -0.19403E-02  0.00000E+00 -0.70163E-01 -0.17425E-02  0.00000E+00 -0.71982E-01 -0.14508E-02  0.00000E+00 -0.73655E-01
         -0.10452E-02  0.00000E+00 -0.75085E-01 -0.51383E-03  0.00000E+00 -0.76410E-01  0.18485E-03  0.00000E+00 -0.77436E-01  0.10923E-02  0.00000E+00 -0.78480E-01  0.21848E-02  0.00000E+00 -0.79129E-01  0.32113E-02  0.00000E+00 -0.80117E-01
          0.75982E-02  0.00000E+00 -0.19300E-02  0.37720E-02  0.00000E+00 -0.50148E-02  0.25492E-02  0.00000E+00 -0.91007E-02  0.28150E-02  0.00000E+00 -0.13215E-01  0.30623E-02  0.00000E+00 -0.17052E-01  0.31418E-02  0.00000E+00 -0.21158E-01
          0.30746E-02  0.00000E+00 -0.25037E-01  0.28910E-02  0.00000E+00 -0.28942E-01  0.26474E-02  0.00000E+00 -0.32707E-01  0.23323E-02  0.00000E+00 -0.36402E-01  0.19942E-02  0.00000E+00 -0.39964E-01  0.16275E-02  0.00000E+00 -0.43407E-01
          0.12581E-02  0.00000E+00 -0.46729E-01  0.89610E-03  0.00000E+00 -0.49900E-01  0.55076E-03  0.00000E+00 -0.52954E-01  0.23608E-03  0.00000E+00 -0.55844E-01 -0.43662E-04  0.00000E+00 -0.58606E-01 -0.27731E-03  0.00000E+00 -0.61206E-01
         -0.46063E-03  0.00000E+00 -0.63656E-01 -0.58625E-03  0.00000E+00 -0.65948E-01 -0.64754E-03  0.00000E+00 -0.68068E-01 -0.63924E-03  0.00000E+00 -0.70030E-01 -0.54966E-03  0.00000E+00 -0.71794E-01 -0.37208E-03  0.00000E+00 -0.73410E-01
         -0.83673E-04  0.00000E+00 -0.74790E-01  0.33402E-03  0.00000E+00 -0.76070E-01  0.92927E-03  0.00000E+00 -0.77056E-01  0.17520E-02  0.00000E+00 -0.78072E-01  0.28003E-02  0.00000E+00 -0.78682E-01  0.38230E-02  0.00000E+00 -0.79739E-01
          0.10220E-01  0.00000E+00 -0.17936E-02  0.61303E-02  0.00000E+00 -0.49386E-02  0.49878E-02  0.00000E+00 -0.90543E-02  0.53010E-02  0.00000E+00 -0.13195E-01  0.55862E-02  0.00000E+00 -0.17130E-01  0.56850E-02  0.00000E+00 -0.21233E-01
          0.56140E-02  0.00000E+00 -0.25193E-01  0.54159E-02  0.00000E+00 -0.29122E-01  0.51449E-02  0.00000E+00 -0.32934E-01  0.47989E-02  0.00000E+00 -0.36654E-01  0.44195E-02  0.00000E+00 -0.40233E-01  0.40056E-02  0.00000E+00 -0.43690E-01
          0.35833E-02  0.00000E+00 -0.47008E-01  0.31604E-02  0.00000E+00 -0.50171E-01  0.27474E-02  0.00000E+00 -0.53205E-01  0.23564E-02  0.00000E+00 -0.56070E-01  0.19920E-02  0.00000E+00 -0.58799E-01  0.16648E-02  0.00000E+00 -0.61359E-01
          0.13792E-02  0.00000E+00 -0.63767E-01  0.11429E-02  0.00000E+00 -0.66009E-01  0.96314E-03  0.00000E+00 -0.68081E-01  0.84654E-03  0.00000E+00 -0.69991E-01  0.80605E-03  0.00000E+00 -0.71707E-01  0.85177E-03  0.00000E+00 -0.73275E-01
          0.10092E-02  0.00000E+00 -0.74616E-01  0.13027E-02  0.00000E+00 -0.75863E-01  0.17862E-02  0.00000E+00 -0.76824E-01  0.25199E-02  0.00000E+00 -0.77839E-01  0.35004E-02  0.00000E+00 -0.78440E-01  0.44859E-02  0.00000E+00 -0.79516E-01
          0.13247E-01  0.00000E+00 -0.16691E-02  0.89250E-02  0.00000E+00 -0.48439E-02  0.78940E-02  0.00000E+00 -0.90230E-02  0.82916E-02  0.00000E+00 -0.13181E-01  0.86361E-02  0.00000E+00 -0.17198E-01  0.87512E-02  0.00000E+00 -0.21327E-01
          0.86763E-02  0.00000E+00 -0.25367E-01  0.84696E-02  0.00000E+00 -0.29322E-01  0.81724E-02  0.00000E+00 -0.33187E-01  0.77945E-02  0.00000E+00 -0.36935E-01  0.73728E-02  0.00000E+00 -0.40540E-01  0.69100E-02  0.00000E+00 -0.44014E-01
          0.64315E-02  0.00000E+00 -0.47337E-01  0.59436E-02  0.00000E+00 -0.50501E-01  0.54582E-02  0.00000E+00 -0.53525E-01  0.49855E-02  0.00000E+00 -0.56374E-01  0.45299E-02  0.00000E+00 -0.59082E-01  0.41009E-02  0.00000E+00 -0.61614E-01
          0.37021E-02  0.00000E+00 -0.63994E-01  0.33407E-02  0.00000E+00 -0.66200E-01  0.30231E-02  0.00000E+00 -0.68237E-01  0.27562E-02  0.00000E+00 -0.70107E-01  0.25535E-02  0.00000E+00 -0.71788E-01  0.24269E-02  0.00000E+00 -0.73317E-01
          0.24050E-02  0.00000E+00 -0.74627E-01  0.25184E-02  0.00000E+00 -0.75845E-01  0.28276E-02  0.00000E+00 -0.76779E-01  0.34069E-02  0.00000E+00 -0.77781E-01  0.42710E-02  0.00000E+00 -0.78357E-01  0.51938E-02  0.00000E+00 -0.79488E-01
          0.16741E-01  0.00000E+00 -0.15551E-02  0.12314E-01  0.00000E+00 -0.47418E-02  0.11441E-01  0.00000E+00 -0.89805E-02  0.11914E-01  0.00000E+00 -0.13190E-01  0.12303E-01  0.00000E+00 -0.17291E-01  0.12431E-01  0.00000E+00 -0.21462E-01
          0.12353E-01  0.00000E+00 -0.25574E-01  0.12131E-01  0.00000E+00 -0.29563E-01  0.11799E-01  0.00000E+00 -0.33487E-01  0.11380E-01  0.00000E+00 -0.37266E-01  0.10903E-01  0.00000E+00 -0.40906E-01  0.10378E-01  0.00000E+00 -0.44402E-01
          0.98265E-02  0.00000E+00 -0.47737E-01  0.92547E-02  0.00000E+00 -0.50910E-01  0.86752E-02  0.00000E+00 -0.53932E-01  0.80956E-02  0.00000E+00 -0.56775E-01  0.75210E-02  0.00000E+00 -0.59472E-01  0.69592E-02  0.00000E+00 -0.61987E-01
          0.64139E-02  0.00000E+00 -0.64347E-01  0.58920E-02  0.00000E+00 -0.66530E-01  0.54003E-02  0.00000E+00 -0.68544E-01  0.49468E-02  0.00000E+00 -0.70386E-01  0.45467E-02  0.00000E+00 -0.72043E-01  0.42156E-02  0.00000E+00 -0.73547E-01
          0.39851E-02  0.00000E+00 -0.74837E-01  0.38933E-02  0.00000E+00 -0.76039E-01  0.40060E-02  0.00000E+00 -0.76962E-01  0.44087E-02  0.00000E+00 -0.77970E-01  0.51234E-02  0.00000E+00 -0.78542E-01  0.59485E-02  0.00000E+00 -0.79703E-01
          0.20644E-01  0.00000E+00 -0.14242E-02  0.16166E-01  0.00000E+00 -0.46159E-02  0.15442E-01  0.00000E+00 -0.89553E-02  0.15987E-01  0.00000E+00 -0.13219E-01  0.16425E-01  0.00000E+00 -0.17383E-01  0.16564E-01  0.00000E+00 -0.21615E-01
          0.16477E-01  0.00000E+00 -0.25796E-01  0.16230E-01  0.00000E+00 -0.29831E-01  0.15855E-01  0.00000E+00 -0.33820E-01  0.15386E-01  0.00000E+00 -0.37633E-01  0.14846E-01  0.00000E+00 -0.41318E-01  0.14247E-01  0.00000E+00 -0.44842E-01
          0.13613E-01  0.00000E+00 -0.48202E-01  0.12946E-01  0.00000E+00 -0.51393E-01  0.12261E-01  0.00000E+00 -0.54426E-01  0.11563E-01  0.00000E+00 -0.57277E-01  0.10858E-01  0.00000E+00 -0.59977E-01  0.10151E-01  0.00000E+00 -0.62492E-01
          0.94460E-02  0.00000E+00 -0.64852E-01  0.87494E-02  0.00000E+00 -0.67028E-01  0.80678E-02  0.00000E+00 -0.69037E-01  0.74098E-02  0.00000E+00 -0.70869E-01  0.67912E-02  0.00000E+00 -0.72520E-01  0.62301E-02  0.00000E+00 -0.74014E-01
          0.57611E-02  0.00000E+00 -0.75298E-01  0.54292E-02  0.00000E+00 -0.76495E-01  0.53066E-02  0.00000E+00 -0.77411E-01  0.54934E-02  0.00000E+00 -0.78423E-01  0.60294E-02  0.00000E+00 -0.78983E-01  0.67414E-02  0.00000E+00 -0.80191E-01
          0.25040E-01  0.00000E+00 -0.13018E-02  0.20667E-01  0.00000E+00 -0.44792E-02  0.20130E-01  0.00000E+00 -0.89206E-02  0.20750E-01  0.00000E+00 -0.13256E-01  0.21226E-01  0.00000E+00 -0.17492E-01  0.21363E-01  0.00000E+00 -0.21805E-01
          0.21258E-01  0.00000E+00 -0.26055E-01  0.20975E-01  0.00000E+00 -0.30148E-01  0.20544E-01  0.00000E+00 -0.34208E-01  0.20008E-01  0.00000E+00 -0.38065E-01  0.19384E-01  0.00000E+00 -0.41806E-01  0.18691E-01  0.00000E+00 -0.45367E-01
          0.17949E-01  0.00000E+00 -0.48764E-01  0.17161E-01  0.00000E+00 -0.51985E-01  0.16342E-01  0.00000E+00 -0.55042E-01  0.15495E-01  0.00000E+00 -0.57915E-01  0.14626E-01  0.00000E+00 -0.60633E-01  0.13739E-01  0.00000E+00 -0.63163E-01
          0.12839E-01  0.00000E+00 -0.65535E-01  0.11931E-01  0.00000E+00 -0.67721E-01  0.11022E-01  0.00000E+00 -0.69740E-01  0.10123E-01  0.00000E+00 -0.71578E-01  0.92513E-02  0.00000E+00 -0.73236E-01  0.84283E-02  0.00000E+00 -0.74734E-01
          0.76921E-02  0.00000E+00 -0.76024E-01  0.70956E-02  0.00000E+00 -0.77229E-01  0.67164E-02  0.00000E+00 -0.78150E-01  0.66668E-02  0.00000E+00 -0.79179E-01  0.69985E-02  0.00000E+00 -0.79745E-01  0.75727E-02  0.00000E+00 -0.80988E-01
          0.29898E-01  0.00000E+00 -0.11666E-02  0.25729E-01  0.00000E+00 -0.43338E-02  0.25363E-01  0.00000E+00 -0.89080E-02  0.26035E-01  0.00000E+00 -0.13323E-01  0.26531E-01  0.00000E+00 -0.17626E-01  0.26654E-01  0.00000E+00 -0.22036E-01
          0.26516E-01  0.00000E+00 -0.26354E-01  0.26178E-01  0.00000E+00 -0.30520E-01  0.25671E-01  0.00000E+00 -0.34658E-01  0.25049E-01  0.00000E+00 -0.38567E-01  0.24320E-01  0.00000E+00 -0.42377E-01  0.23512E-01  0.00000E+00 -0.45983E-01
          0.22640E-01  0.00000E+00 -0.49431E-01  0.21709E-01  0.00000E+00 -0.52695E-01  0.20734E-01  0.00000E+00 -0.55791E-01  0.19717E-01  0.00000E+00 -0.58702E-01  0.18663E-01  0.00000E+00 -0.61453E-01  0.17576E-01  0.00000E+00 -0.64016E-01
          0.16461E-01  0.00000E+00 -0.66419E-01  0.15323E-01  0.00000E+00 -0.68632E-01  0.14170E-01  0.00000E+00 -0.70680E-01  0.13013E-01  0.00000E+00 -0.72541E-01  0.11869E-01  0.00000E+00 -0.74224E-01  0.10766E-01  0.00000E+00 -0.75743E-01
          0.97427E-02  0.00000E+00 -0.77053E-01  0.88601E-02  0.00000E+00 -0.78277E-01  0.82015E-02  0.00000E+00 -0.79212E-01  0.78933E-02  0.00000E+00 -0.80260E-01  0.80047E-02  0.00000E+00 -0.80830E-01  0.84336E-02  0.00000E+00 -0.82113E-01
          0.35259E-01  0.00000E+00 -0.10429E-02  0.31445E-01  0.00000E+00 -0.41983E-02  0.31265E-01  0.00000E+00 -0.89131E-02  0.31983E-01  0.00000E+00 -0.13416E-01  0.32486E-01  0.00000E+00 -0.17801E-01  0.32578E-01  0.00000E+00 -0.22322E-01
          0.32389E-01  0.00000E+00 -0.26716E-01  0.31977E-01  0.00000E+00 -0.30971E-01  0.31374E-01  0.00000E+00 -0.35196E-01  0.30641E-01  0.00000E+00 -0.39171E-01  0.29783E-01  0.00000E+00 -0.43062E-01  0.28833E-01  0.00000E+00 -0.46727E-01
          0.27801E-01  0.00000E+00 -0.50242E-01  0.26697E-01  0.00000E+00 -0.53561E-01  0.25534E-01  0.00000E+00 -0.56712E-01  0.24312E-01  0.00000E+00 -0.59676E-01  0.23039E-01  0.00000E+00 -0.62478E-01  0.21717E-01  0.00000E+00 -0.65088E-01
          0.20352E-01  0.00000E+00 -0.67539E-01  0.18949E-01  0.00000E+00 -0.69795E-01  0.17518E-01  0.00000E+00 -0.71885E-01  0.16070E-01  0.00000E+00 -0.73784E-01  0.14627E-01  0.00000E+00 -0.75504E-01  0.13218E-01  0.00000E+00 -0.77056E-01
          0.11886E-01  0.00000E+00 -0.78396E-01  0.10700E-01  0.00000E+00 -0.79649E-01  0.97494E-02  0.00000E+00 -0.80607E-01  0.91720E-02  0.00000E+00 -0.81684E-01  0.90515E-02  0.00000E+00 -0.82268E-01  0.93238E-02  0.00000E+00 -0.83588E-01
          0.41093E-01  0.00000E+00 -0.92902E-03  0.37749E-01  0.00000E+00 -0.40885E-02  0.37741E-01  0.00000E+00 -0.89622E-02  0.38480E-01  0.00000E+00 -0.13561E-01  0.38963E-01  0.00000E+00 -0.18039E-01  0.39003E-01  0.00000E+00 -0.22685E-01