<?xml version="1.0"?>
<VTKFile type="UnstructuredGrid" version="0.1" byte_order="LittleEndian" compressor="vtkZLibDataCompressor">
<UnstructuredGrid>
  <Piece NumberOfPoints="1800"        NumberOfCells="1"      >
    <Points>
      <DataArray type="Float32" NumberOfComponents="3" format="ascii" >
        0.23062E-01  0.00000E+00  0.24929E-02  0.11736E-01  0.00000E+00  0.45859E-02  0.67590E-02  0.00000E+00  0.11120E-01  0.87050E-02  0.00000E+00  0.17867E-01  0.80919E-02  0.00000E+00  0.24038E-01  0.76349E-02  0.00000E+00  0.30819E-01
        0.77059E-02  0.00000E+00  0.37773E-01  0.84313E-02  0.00000E+00  0.44198E-01  0.86999E-02  0.00000E+00  0.50309E-01  0.88261E-02  0.00000E+00  0.56097E-01  0.87338E-02  0.00000E+00  0.61858E-01  0.86214E-02  0.00000E+00  0.67654E-01
        0.84417E-02  0.00000E+00  0.73529E-01  0.82716E-02  0.00000E+00  0.79445E-01  0.81033E-02  0.00000E+00  0.85451E-01  0.79322E-02  0.00000E+00  0.91538E-01  0.77701E-02  0.00000E+00  0.97709E-01  0.76171E-02  0.00000E+00  0.10396E+00
        0.74752E-02  0.00000E+00  0.11031E+00  0.73446E-02  0.00000E+00  0.11673E+00  0.72233E-02  0.00000E+00  0.12324E+00  0.71175E-02  0.00000E+00  0.12984E+00  0.70166E-02  0.00000E+00  0.13651E+00  0.69114E-02  0.00000E+00  0.14325E+00
        0.68595E-02  0.00000E+00  0.15011E+00  0.67507E-02  0.00000E+00  0.15698E+00  0.65802E-02  0.00000E+00  0.16388E+00  0.69849E-02  0.00000E+00  0.17123E+00  0.62810E-02  0.00000E+00  0.17823E+00  0.61363E-02  0.00000E+00  0.18384E+00
        0.35540E-01  0.00000E+00  0.38233E-02  0.21543E-01  0.00000E+00  0.11219E-01  0.32517E-01  0.00000E+00  0.13044E-01  0.28057E-01  0.00000E+00  0.20705E-01  0.18911E-01  0.00000E+00  0.22104E-01  0.27897E-01  0.00000E+00  0.29970E-01
        0.19060E-01  0.00000E+00  0.34232E-01  0.27666E-01  0.00000E+00  0.39876E-01  0.20691E-01  0.00000E+00  0.45854E-01  0.26665E-01  0.00000E+00  0.51765E-01  0.23349E-01  0.00000E+00  0.58112E-01  0.24435E-01  0.00000E+00  0.64590E-01
        0.23753E-01  0.00000E+00  0.71064E-01  0.23623E-01  0.00000E+00  0.77581E-01  0.23299E-01  0.00000E+00  0.84103E-01  0.23035E-01  0.00000E+00  0.90641E-01  0.22756E-01  0.00000E+00  0.97187E-01  0.22492E-01  0.00000E+00  0.10375E+00
        0.22231E-01  0.00000E+00  0.11034E+00  0.21983E-01  0.00000E+00  0.11696E+00  0.21741E-01  0.00000E+00  0.12360E+00  0.21505E-01  0.00000E+00  0.13030E+00  0.21285E-01  0.00000E+00  0.13705E+00  0.21057E-01  0.00000E+00  0.14375E+00
        0.20829E-01  0.00000E+00  0.15068E+00  0.20712E-01  0.00000E+00  0.15761E+00  0.20277E-01  0.00000E+00  0.16407E+00  0.20539E-01  0.00000E+00  0.17191E+00  0.19886E-01  0.00000E+00  0.17863E+00  0.20001E-01  0.00000E+00  0.18405E+00
        0.52140E-01  0.00000E+00  0.35013E-02  0.43393E-01  0.00000E+00  0.10215E-01  0.55118E-01  0.00000E+00  0.13351E-01  0.47400E-01  0.00000E+00  0.19440E-01  0.38640E-01  0.00000E+00  0.23512E-01  0.47651E-01  0.00000E+00  0.29227E-01
        0.37628E-01  0.00000E+00  0.33924E-01  0.45958E-01  0.00000E+00  0.39992E-01  0.36887E-01  0.00000E+00  0.45092E-01  0.43099E-01  0.00000E+00  0.51329E-01  0.38151E-01  0.00000E+00  0.57388E-01  0.39784E-01  0.00000E+00  0.64156E-01
        0.38726E-01  0.00000E+00  0.70725E-01  0.38600E-01  0.00000E+00  0.77413E-01  0.38269E-01  0.00000E+00  0.84121E-01  0.37998E-01  0.00000E+00  0.90815E-01  0.37691E-01  0.00000E+00  0.97521E-01  0.37401E-01  0.00000E+00  0.10423E+00
        0.37097E-01  0.00000E+00  0.11096E+00  0.36797E-01  0.00000E+00  0.11770E+00  0.36492E-01  0.00000E+00  0.12443E+00  0.36188E-01  0.00000E+00  0.13122E+00  0.35875E-01  0.00000E+00  0.13804E+00  0.35581E-01  0.00000E+00  0.14476E+00
        0.35264E-01  0.00000E+00  0.15174E+00  0.34989E-01  0.00000E+00  0.15868E+00  0.34698E-01  0.00000E+00  0.16506E+00  0.34521E-01  0.00000E+00  0.17294E+00  0.34085E-01  0.00000E+00  0.17943E+00  0.34017E-01  0.00000E+00  0.18481E+00
        0.75697E-01  0.00000E+00  0.32312E-02  0.63672E-01  0.00000E+00  0.74577E-02  0.70425E-01  0.00000E+00  0.13618E-01  0.69239E-01  0.00000E+00  0.22163E-01  0.58358E-01  0.00000E+00  0.22652E-01  0.65851E-01  0.00000E+00  0.30410E-01
        0.56135E-01  0.00000E+00  0.33711E-01  0.63540E-01  0.00000E+00  0.41009E-01  0.54307E-01  0.00000E+00  0.45235E-01  0.58575E-01  0.00000E+00  0.52313E-01  0.53685E-01  0.00000E+00  0.58142E-01  0.54740E-01  0.00000E+00  0.64909E-01
        0.53696E-01  0.00000E+00  0.71468E-01  0.53550E-01  0.00000E+00  0.78145E-01  0.53161E-01  0.00000E+00  0.84819E-01  0.52871E-01  0.00000E+00  0.91508E-01  0.52543E-01  0.00000E+00  0.98219E-01  0.52230E-01  0.00000E+00  0.10494E+00
        0.51902E-01  0.00000E+00  0.11167E+00  0.51577E-01  0.00000E+00  0.11842E+00  0.51241E-01  0.00000E+00  0.12516E+00  0.50911E-01  0.00000E+00  0.13195E+00  0.50564E-01  0.00000E+00  0.13875E+00  0.50240E-01  0.00000E+00  0.14544E+00
        0.49901E-01  0.00000E+00  0.15239E+00  0.49575E-01  0.00000E+00  0.15925E+00  0.49332E-01  0.00000E+00  0.16556E+00  0.48983E-01  0.00000E+00  0.17341E+00  0.48958E-01  0.00000E+00  0.17969E+00  0.48711E-01  0.00000E+00  0.18496E+00
        0.95254E-01  0.00000E+00  0.36652E-02  0.86100E-01  0.00000E+00  0.83994E-02  0.81019E-01  0.00000E+00  0.15750E-01  0.89451E-01  0.00000E+00  0.22065E-01  0.79488E-01  0.00000E+00  0.25732E-01  0.87002E-01  0.00000E+00  0.32465E-01
        0.75260E-01  0.00000E+00  0.34625E-01  0.80369E-01  0.00000E+00  0.42131E-01  0.71423E-01  0.00000E+00  0.46212E-01  0.73457E-01  0.00000E+00  0.53574E-01  0.69405E-01  0.00000E+00  0.59440E-01  0.69816E-01  0.00000E+00  0.66124E-01
        0.68876E-01  0.00000E+00  0.72610E-01  0.68630E-01  0.00000E+00  0.79172E-01  0.68224E-01  0.00000E+00  0.85754E-01  0.67895E-01  0.00000E+00  0.92351E-01  0.67533E-01  0.00000E+00  0.98971E-01  0.67185E-01  0.00000E+00  0.10560E+00
        0.66825E-01  0.00000E+00  0.11226E+00  0.66470E-01  0.00000E+00  0.11894E+00  0.66104E-01  0.00000E+00  0.12561E+00  0.65744E-01  0.00000E+00  0.13235E+00  0.65374E-01  0.00000E+00  0.13909E+00  0.65016E-01  0.00000E+00  0.14572E+00
        0.64654E-01  0.00000E+00  0.15262E+00  0.64320E-01  0.00000E+00  0.15943E+00  0.63990E-01  0.00000E+00  0.16567E+00  0.63718E-01  0.00000E+00  0.17349E+00  0.63435E-01  0.00000E+00  0.17968E+00  0.63345E-01  0.00000E+00  0.18496E+00
        0.11074E+00  0.00000E+00  0.39479E-02  0.10411E+00  0.00000E+00  0.10526E-01  0.96485E-01  0.00000E+00  0.15445E-01  0.10955E+00  0.00000E+00  0.20726E-01  0.10029E+00  0.00000E+00  0.24618E-01  0.10660E+00  0.00000E+00  0.31708E-01
        0.96449E-01  0.00000E+00  0.34037E-01  0.95806E-01  0.00000E+00  0.42492E-01  0.88439E-01  0.00000E+00  0.46974E-01  0.87982E-01  0.00000E+00  0.54420E-01  0.85365E-01  0.00000E+00  0.60546E-01  0.84951E-01  0.00000E+00  0.67031E-01
        0.84306E-01  0.00000E+00  0.73528E-01  0.83940E-01  0.00000E+00  0.80004E-01  0.83509E-01  0.00000E+00  0.86496E-01  0.83125E-01  0.00000E+00  0.93021E-01  0.82716E-01  0.00000E+00  0.99564E-01  0.82318E-01  0.00000E+00  0.10612E+00
        0.81909E-01  0.00000E+00  0.11271E+00  0.81507E-01  0.00000E+00  0.11933E+00  0.81093E-01  0.00000E+00  0.12593E+00  0.80695E-01  0.00000E+00  0.13261E+00  0.80288E-01  0.00000E+00  0.13929E+00  0.79890E-01  0.00000E+00  0.14587E+00
        0.79515E-01  0.00000E+00  0.15274E+00  0.79144E-01  0.00000E+00  0.15946E+00  0.78820E-01  0.00000E+00  0.16565E+00  0.78543E-01  0.00000E+00  0.17348E+00  0.78390E-01  0.00000E+00  0.17953E+00  0.78207E-01  0.00000E+00  0.18473E+00
        0.12293E+00  0.00000E+00  0.39764E-02  0.12965E+00  0.00000E+00  0.11073E-01  0.11674E+00  0.00000E+00  0.13219E-01  0.12937E+00  0.00000E+00  0.20152E-01  0.11945E+00  0.00000E+00  0.22249E-01  0.12212E+00  0.00000E+00  0.30338E-01
        0.11532E+00  0.00000E+00  0.35656E-01  0.11074E+00  0.00000E+00  0.42636E-01  0.10500E+00  0.00000E+00  0.47823E-01  0.10276E+00  0.00000E+00  0.54667E-01  0.10134E+00  0.00000E+00  0.61042E-01  0.10033E+00  0.00000E+00  0.67378E-01
        0.99928E-01  0.00000E+00  0.73857E-01  0.99434E-01  0.00000E+00  0.80278E-01  0.98988E-01  0.00000E+00  0.86728E-01  0.98549E-01  0.00000E+00  0.93213E-01  0.98090E-01  0.00000E+00  0.99710E-01  0.97638E-01  0.00000E+00  0.10622E+00
        0.97177E-01  0.00000E+00  0.11278E+00  0.96726E-01  0.00000E+00  0.11934E+00  0.96265E-01  0.00000E+00  0.12591E+00  0.95824E-01  0.00000E+00  0.13255E+00  0.95379E-01  0.00000E+00  0.13918E+00  0.94948E-01  0.00000E+00  0.14571E+00
        0.94543E-01  0.00000E+00  0.15254E+00  0.94158E-01  0.00000E+00  0.15922E+00  0.93793E-01  0.00000E+00  0.16535E+00  0.93520E-01  0.00000E+00  0.17316E+00  0.93226E-01  0.00000E+00  0.17916E+00  0.93065E-01  0.00000E+00  0.18435E+00
        0.13708E+00  0.00000E+00  0.37353E-02  0.14547E+00  0.00000E+00  0.10748E-01  0.13970E+00  0.00000E+00  0.17219E-01  0.15362E+00  0.00000E+00  0.19533E-01  0.14426E+00  0.00000E+00  0.25602E-01  0.13517E+00  0.00000E+00  0.28337E-01
        0.13264E+00  0.00000E+00  0.36515E-01  0.12631E+00  0.00000E+00  0.42019E-01  0.12252E+00  0.00000E+00  0.48484E-01  0.11842E+00  0.00000E+00  0.54254E-01  0.11712E+00  0.00000E+00  0.60704E-01  0.11606E+00  0.00000E+00  0.67010E-01
        0.11561E+00  0.00000E+00  0.73465E-01  0.11506E+00  0.00000E+00  0.79913E-01  0.11456E+00  0.00000E+00  0.86365E-01  0.11406E+00  0.00000E+00  0.92854E-01  0.11355E+00  0.00000E+00  0.99353E-01  0.11304E+00  0.00000E+00  0.10587E+00
        0.11252E+00  0.00000E+00  0.11241E+00  0.11202E+00  0.00000E+00  0.11898E+00  0.11150E+00  0.00000E+00  0.12553E+00  0.11102E+00  0.00000E+00  0.13216E+00  0.11053E+00  0.00000E+00  0.13878E+00  0.11006E+00  0.00000E+00  0.14530E+00
        0.10963E+00  0.00000E+00  0.15212E+00  0.10921E+00  0.00000E+00  0.15876E+00  0.10881E+00  0.00000E+00  0.16489E+00  0.10854E+00  0.00000E+00  0.17270E+00  0.10825E+00  0.00000E+00  0.17865E+00  0.10804E+00  0.00000E+00  0.18380E+00
[...]
<PointData>
      <DataArray type="Float32" Name="Velocity vectors"  NumberOfComponents="3"  format="ascii" >
          0.10266E+00  0.00000E+00 -0.78020E-03  0.89174E-01  0.00000E+00 -0.25632E-01 -0.11298E-01  0.00000E+00 -0.65309E-01  0.51731E-02  0.00000E+00 -0.48210E-01 -0.38918E-02  0.00000E+00 -0.54757E-01 -0.29770E-03  0.00000E+00 -0.55968E-01
         -0.17629E-02  0.00000E+00 -0.53480E-01  0.38456E-02  0.00000E+00 -0.51090E-01  0.55026E-02  0.00000E+00 -0.47932E-01  0.11903E-01  0.00000E+00 -0.48746E-01  0.15242E-01  0.00000E+00 -0.53248E-01  0.17960E-01  0.00000E+00 -0.60872E-01
          0.17428E-01  0.00000E+00 -0.69697E-01  0.17911E-01  0.00000E+00 -0.79098E-01  0.17832E-01  0.00000E+00 -0.89005E-01  0.17295E-01  0.00000E+00 -0.99483E-01  0.16432E-01  0.00000E+00 -0.11010E+00  0.15368E-01  0.00000E+00 -0.12088E+00
          0.14187E-01  0.00000E+00 -0.13163E+00  0.12882E-01  0.00000E+00 -0.14224E+00  0.11642E-01  0.00000E+00 -0.15253E+00  0.10520E-01  0.00000E+00 -0.16255E+00  0.93233E-02  0.00000E+00 -0.17241E+00  0.84742E-02  0.00000E+00 -0.18153E+00
          0.79733E-02  0.00000E+00 -0.19034E+00  0.63049E-02  0.00000E+00 -0.19975E+00  0.63949E-02  0.00000E+00 -0.20735E+00  0.87276E-02  0.00000E+00 -0.21371E+00  0.27499E-02  0.00000E+00 -0.22359E+00  0.51949E-02  0.00000E+00 -0.23532E+00
          0.94971E-01  0.00000E+00 -0.67363E-03  0.32734E-01  0.00000E+00  0.57555E-02  0.68113E-01  0.00000E+00 -0.11813E-01  0.17876E-01  0.00000E+00 -0.27880E-01  0.81659E-02  0.00000E+00 -0.39660E-01  0.19904E-01  0.00000E+00 -0.34229E-01
          0.28950E-03  0.00000E+00 -0.57716E-01  0.28477E-01  0.00000E+00 -0.57699E-01 -0.24168E-01  0.00000E+00 -0.72314E-01  0.68355E-01  0.00000E+00 -0.93611E-01 -0.11684E-01  0.00000E+00 -0.98227E-01  0.47024E-01  0.00000E+00 -0.10515E+00
          0.29058E-01  0.00000E+00 -0.11270E+00  0.36927E-01  0.00000E+00 -0.11660E+00  0.34376E-01  0.00000E+00 -0.12205E+00  0.34871E-01  0.00000E+00 -0.12757E+00  0.33899E-01  0.00000E+00 -0.13309E+00  0.33000E-01  0.00000E+00 -0.13901E+00
          0.31781E-01  0.00000E+00 -0.14518E+00  0.30585E-01  0.00000E+00 -0.15194E+00  0.29280E-01  0.00000E+00 -0.15900E+00  0.27988E-01  0.00000E+00 -0.16593E+00  0.26652E-01  0.00000E+00 -0.17421E+00  0.25212E-01  0.00000E+00 -0.18220E+00
          0.23895E-01  0.00000E+00 -0.18860E+00  0.23212E-01  0.00000E+00 -0.19879E+00  0.20060E-01  0.00000E+00 -0.20741E+00  0.22422E-01  0.00000E+00 -0.21026E+00  0.17214E-01  0.00000E+00 -0.22331E+00  0.19370E-01  0.00000E+00 -0.23390E+00
          0.90661E-01  0.00000E+00 -0.90367E-03  0.83552E-01  0.00000E+00  0.27966E-02  0.11238E+00  0.00000E+00 -0.92038E-02  0.70351E-01  0.00000E+00 -0.24895E-01  0.39098E-01  0.00000E+00 -0.37513E-01  0.55060E-01  0.00000E+00 -0.42584E-01
          0.39080E-01  0.00000E+00 -0.60408E-01  0.57533E-01  0.00000E+00 -0.66139E-01  0.19463E-01  0.00000E+00 -0.75977E-01  0.10706E+00  0.00000E+00 -0.87608E-01  0.57307E-02  0.00000E+00 -0.10787E+00  0.71228E-01  0.00000E+00 -0.11364E+00
          0.38876E-01  0.00000E+00 -0.12377E+00  0.48808E-01  0.00000E+00 -0.12858E+00  0.46524E-01  0.00000E+00 -0.13333E+00  0.47222E-01  0.00000E+00 -0.13862E+00  0.46573E-01  0.00000E+00 -0.14375E+00  0.46429E-01  0.00000E+00 -0.14901E+00
          0.45885E-01  0.00000E+00 -0.15441E+00  0.45386E-01  0.00000E+00 -0.16041E+00  0.44651E-01  0.00000E+00 -0.16650E+00  0.43841E-01  0.00000E+00 -0.17225E+00  0.42766E-01  0.00000E+00 -0.17965E+00  0.41790E-01  0.00000E+00 -0.18650E+00
          0.40312E-01  0.00000E+00 -0.19180E+00  0.39157E-01  0.00000E+00 -0.20167E+00  0.37757E-01  0.00000E+00 -0.20875E+00  0.37243E-01  0.00000E+00 -0.21187E+00  0.33579E-01  0.00000E+00 -0.22595E+00  0.34479E-01  0.00000E+00 -0.23512E+00
          0.13113E+00  0.00000E+00 -0.70033E-03  0.99382E-01  0.00000E+00 -0.12455E-01  0.12959E+00  0.00000E+00 -0.26889E-01  0.98805E-01  0.00000E+00 -0.22074E-01  0.91553E-01  0.00000E+00 -0.31263E-01  0.88343E-01  0.00000E+00 -0.33745E-01
          0.67736E-01  0.00000E+00 -0.54959E-01  0.99968E-01  0.00000E+00 -0.55523E-01  0.56600E-01  0.00000E+00 -0.80376E-01  0.14452E+00  0.00000E+00 -0.82913E-01  0.30491E-01  0.00000E+00 -0.11391E+00  0.86182E-01  0.00000E+00 -0.11018E+00
          0.53468E-01  0.00000E+00 -0.12173E+00  0.62232E-01  0.00000E+00 -0.12673E+00  0.57980E-01  0.00000E+00 -0.13213E+00  0.58954E-01  0.00000E+00 -0.13807E+00  0.58377E-01  0.00000E+00 -0.14370E+00  0.58418E-01  0.00000E+00 -0.14933E+00
          0.58110E-01  0.00000E+00 -0.15503E+00  0.57952E-01  0.00000E+00 -0.16114E+00  0.57506E-01  0.00000E+00 -0.16718E+00  0.57181E-01  0.00000E+00 -0.17282E+00  0.56466E-01  0.00000E+00 -0.18015E+00  0.55879E-01  0.00000E+00 -0.18662E+00
          0.55030E-01  0.00000E+00 -0.19175E+00  0.54162E-01  0.00000E+00 -0.20182E+00  0.53713E-01  0.00000E+00 -0.20831E+00  0.52463E-01  0.00000E+00 -0.21131E+00  0.53651E-01  0.00000E+00 -0.22539E+00  0.52888E-01  0.00000E+00 -0.23512E+00
          0.17778E+00  0.00000E+00 -0.33140E-03  0.15146E+00  0.00000E+00 -0.12622E-01  0.11692E+00  0.00000E+00 -0.19177E-01  0.13172E+00  0.00000E+00 -0.20766E-01  0.11591E+00  0.00000E+00 -0.34330E-01  0.13659E+00  0.00000E+00 -0.45768E-01
          0.10571E+00  0.00000E+00 -0.56209E-01  0.14651E+00  0.00000E+00 -0.62103E-01  0.98878E-01  0.00000E+00 -0.87816E-01  0.16352E+00  0.00000E+00 -0.79235E-01  0.57352E-01  0.00000E+00 -0.10844E+00  0.94164E-01  0.00000E+00 -0.10261E+00
          0.68000E-01  0.00000E+00 -0.11323E+00  0.74680E-01  0.00000E+00 -0.11817E+00  0.71693E-01  0.00000E+00 -0.12401E+00  0.72484E-01  0.00000E+00 -0.13049E+00  0.72036E-01  0.00000E+00 -0.13681E+00  0.72230E-01  0.00000E+00 -0.14325E+00
          0.72169E-01  0.00000E+00 -0.14972E+00  0.72305E-01  0.00000E+00 -0.15671E+00  0.72199E-01  0.00000E+00 -0.16360E+00  0.72252E-01  0.00000E+00 -0.17002E+00  0.72064E-01  0.00000E+00 -0.17820E+00  0.71846E-01  0.00000E+00 -0.18535E+00
          0.71607E-01  0.00000E+00 -0.19107E+00  0.71373E-01  0.00000E+00 -0.20180E+00  0.70730E-01  0.00000E+00 -0.20853E+00  0.70765E-01  0.00000E+00 -0.21203E+00  0.69251E-01  0.00000E+00 -0.22668E+00  0.70021E-01  0.00000E+00 -0.23565E+00
          0.19005E+00  0.00000E+00 -0.35537E-02  0.18965E+00  0.00000E+00 -0.40969E-02  0.12850E+00  0.00000E+00 -0.41624E-01  0.16936E+00  0.00000E+00 -0.30499E-01  0.15482E+00  0.00000E+00 -0.50740E-01  0.19283E+00  0.00000E+00 -0.58606E-01
          0.16618E+00  0.00000E+00 -0.88586E-01  0.17645E+00  0.00000E+00 -0.73720E-01  0.13536E+00  0.00000E+00 -0.10428E+00  0.15177E+00  0.00000E+00 -0.86635E-01  0.86333E-01  0.00000E+00 -0.98335E-01  0.96127E-01  0.00000E+00 -0.97591E-01
          0.86329E-01  0.00000E+00 -0.10553E+00  0.88498E-01  0.00000E+00 -0.11063E+00  0.87194E-01  0.00000E+00 -0.11702E+00  0.87989E-01  0.00000E+00 -0.12371E+00  0.87947E-01  0.00000E+00 -0.13028E+00  0.88445E-01  0.00000E+00 -0.13723E+00
          0.88637E-01  0.00000E+00 -0.14416E+00  0.89079E-01  0.00000E+00 -0.15171E+00  0.89113E-01  0.00000E+00 -0.15909E+00  0.89470E-01  0.00000E+00 -0.16605E+00  0.89428E-01  0.00000E+00 -0.17488E+00  0.89241E-01  0.00000E+00 -0.18233E+00
          0.89389E-01  0.00000E+00 -0.18842E+00  0.88962E-01  0.00000E+00 -0.19989E+00  0.88614E-01  0.00000E+00 -0.20643E+00  0.88898E-01  0.00000E+00 -0.20992E+00  0.89069E-01  0.00000E+00 -0.22528E+00  0.89220E-01  0.00000E+00 -0.23487E+00
          0.22259E+00  0.00000E+00 -0.76292E-02  0.23144E+00  0.00000E+00 -0.15789E-01  0.20060E+00  0.00000E+00 -0.29063E-01  0.20666E+00  0.00000E+00 -0.26520E-01  0.18523E+00  0.00000E+00 -0.44105E-01  0.23235E+00  0.00000E+00 -0.49429E-01
          0.19815E+00  0.00000E+00 -0.76806E-01  0.19067E+00  0.00000E+00 -0.74060E-01  0.14887E+00  0.00000E+00 -0.99982E-01  0.13034E+00  0.00000E+00 -0.88471E-01  0.11320E+00  0.00000E+00 -0.88489E-01  0.99305E-01  0.00000E+00 -0.95840E-01
          0.10453E+00  0.00000E+00 -0.10080E+00  0.10268E+00  0.00000E+00 -0.10644E+00  0.10361E+00  0.00000E+00 -0.11319E+00  0.10446E+00  0.00000E+00 -0.11982E+00  0.10492E+00  0.00000E+00 -0.12670E+00  0.10575E+00  0.00000E+00 -0.13400E+00
          0.10630E+00  0.00000E+00 -0.14121E+00  0.10707E+00  0.00000E+00 -0.14912E+00  0.10736E+00  0.00000E+00 -0.15682E+00  0.10794E+00  0.00000E+00 -0.16408E+00  0.10817E+00  0.00000E+00 -0.17332E+00  0.10815E+00  0.00000E+00 -0.18100E+00
          0.10843E+00  0.00000E+00 -0.18735E+00  0.10840E+00  0.00000E+00 -0.19924E+00  0.10791E+00  0.00000E+00 -0.20595E+00  0.10855E+00  0.00000E+00 -0.20968E+00  0.10739E+00  0.00000E+00 -0.22534E+00  0.10799E+00  0.00000E+00 -0.23472E+00
          0.25420E+00  0.00000E+00 -0.34347E-02  0.26117E+00  0.00000E+00 -0.97437E-02  0.22744E+00  0.00000E+00 -0.31283E-01  0.26475E+00  0.00000E+00 -0.32644E-01  0.26048E+00  0.00000E+00 -0.35899E-01  0.23790E+00  0.00000E+00 -0.66124E-01
          0.23008E+00  0.00000E+00 -0.52277E-01  0.19964E+00  0.00000E+00 -0.75390E-01  0.18356E+00  0.00000E+00 -0.72934E-01  0.11933E+00  0.00000E+00 -0.95635E-01  0.12466E+00  0.00000E+00 -0.89879E-01  0.11362E+00  0.00000E+00 -0.98477E-01
          0.12052E+00  0.00000E+00 -0.10283E+00  0.11907E+00  0.00000E+00 -0.10793E+00  0.12096E+00  0.00000E+00 -0.11453E+00  0.12241E+00  0.00000E+00 -0.12094E+00  0.12350E+00  0.00000E+00 -0.12771E+00  0.12471E+00  0.00000E+00 -0.13488E+00
          0.12561E+00  0.00000E+00 -0.14204E+00  0.12664E+00  0.00000E+00 -0.14991E+00  0.12708E+00  0.00000E+00 -0.15753E+00  0.12783E+00  0.00000E+00 -0.16479E+00  0.12814E+00  0.00000E+00 -0.17403E+00  0.12806E+00  0.00000E+00 -0.18157E+00
          0.12852E+00  0.00000E+00 -0.18795E+00  0.12828E+00  0.00000E+00 -0.19996E+00  0.12766E+00  0.00000E+00 -0.20628E+00  0.12837E+00  0.00000E+00 -0.21004E+00  0.12740E+00  0.00000E+00 -0.22586E+00  0.12777E+00  0.00000E+00 -0.23527E+00
          0.26832E+00  0.00000E+00 -0.33445E-02  0.28071E+00  0.00000E+00 -0.75203E-02  0.29394E+00  0.00000E+00 -0.21860E-01  0.30294E+00  0.00000E+00 -0.25565E-01  0.28917E+00  0.00000E+00 -0.40233E-01  0.26576E+00  0.00000E+00 -0.54496E-01
          0.24390E+00  0.00000E+00 -0.45430E-01  0.22318E+00  0.00000E+00 -0.92465E-01  0.22489E+00  0.00000E+00 -0.62625E-01  0.14146E+00  0.00000E+00 -0.10756E+00  0.14259E+00  0.00000E+00 -0.10026E+00  0.12880E+00  0.00000E+00 -0.11030E+00
          0.13151E+00  0.00000E+00 -0.11514E+00  0.13395E+00  0.00000E+00 -0.11829E+00  0.13635E+00  0.00000E+00 -0.12348E+00  0.13858E+00  0.00000E+00 -0.12915E+00  0.14032E+00  0.00000E+00 -0.13490E+00  0.14204E+00  0.00000E+00 -0.14103E+00
          0.14338E+00  0.00000E+00 -0.14740E+00  0.14481E+00  0.00000E+00 -0.15452E+00  0.14555E+00  0.00000E+00 -0.16138E+00  0.14662E+00  0.00000E+00 -0.16811E+00  0.14716E+00  0.00000E+00 -0.17690E+00  0.14728E+00  0.00000E+00 -0.18391E+00
          0.14793E+00  0.00000E+00 -0.19005E+00  0.14787E+00  0.00000E+00 -0.20189E+00  0.14721E+00  0.00000E+00 -0.20779E+00  0.14818E+00  0.00000E+00 -0.21162E+00  0.14667E+00  0.00000E+00 -0.22728E+00  0.14722E+00  0.00000E+00 -0.23643E+00
          0.28655E+00  0.00000E+00 -0.18101E-02  0.30909E+00  0.00000E+00 -0.15841E-01  0.32863E+00  0.00000E+00 -0.16590E-01  0.30361E+00  0.00000E+00 -0.31844E-01  0.33921E+00  0.00000E+00 -0.43975E-01  0.31871E+00  0.00000E+00 -0.46866E-01
          0.28310E+00  0.00000E+00 -0.57017E-01  0.25700E+00  0.00000E+00 -0.95139E-01  0.25351E+00  0.00000E+00 -0.68663E-01  0.18108E+00  0.00000E+00 -0.10314E+00  0.15426E+00  0.00000E+00 -0.99477E-01  0.15086E+00  0.00000E+00 -0.10561E+00
          0.13927E+00  0.00000E+00 -0.11491E+00  0.14598E+00  0.00000E+00 -0.11860E+00  0.14897E+00  0.00000E+00 -0.12388E+00  0.15231E+00  0.00000E+00 -0.12992E+00  0.15504E+00  0.00000E+00 -0.13599E+00  0.15764E+00  0.00000E+00 -0.14232E+00
          0.15973E+00  0.00000E+00 -0.14896E+00  0.16191E+00  0.00000E+00 -0.15628E+00  0.16327E+00  0.00000E+00 -0.16327E+00  0.16491E+00  0.00000E+00 -0.17015E+00  0.16599E+00  0.00000E+00 -0.17903E+00  0.16642E+00  0.00000E+00 -0.18600E+00
          0.16742E+00  0.00000E+00 -0.19223E+00  0.16761E+00  0.00000E+00 -0.20407E+00  0.16687E+00  0.00000E+00 -0.20974E+00  0.16797E+00  0.00000E+00 -0.21365E+00  0.16634E+00  0.00000E+00 -0.22915E+00  0.16682E+00  0.00000E+00 -0.23825E+00
          0.32320E+00  0.00000E+00 -0.16771E-02  0.34124E+00  0.00000E+00 -0.16262E-01  0.35158E+00  0.00000E+00 -0.18400E-01  0.32932E+00  0.00000E+00 -0.28502E-01  0.37024E+00  0.00000E+00 -0.44534E-01  0.35476E+00  0.00000E+00 -0.44181E-01
          0.32435E+00  0.00000E+00 -0.53788E-01  0.30285E+00  0.00000E+00 -0.78379E-01  0.27076E+00  0.00000E+00 -0.71281E-01  0.21479E+00  0.00000E+00 -0.10078E+00  0.18173E+00  0.00000E+00 -0.10018E+00  0.17281E+00  0.00000E+00 -0.10565E+00
          0.15742E+00  0.00000E+00 -0.11732E+00  0.16138E+00  0.00000E+00 -0.12188E+00  0.16497E+00  0.00000E+00 -0.12779E+00  0.16872E+00  0.00000E+00 -0.13461E+00  0.17220E+00  0.00000E+00 -0.14091E+00  0.17537E+00  0.00000E+00 -0.14744E+00
          0.17790E+00  0.00000E+00 -0.15426E+00  0.18040E+00  0.00000E+00 -0.16157E+00  0.18202E+00  0.00000E+00 -0.16847E+00  0.18387E+00  0.00000E+00 -0.17524E+00  0.18507E+00  0.00000E+00 -0.18385E+00  0.18562E+00  0.00000E+00 -0.19048E+00
          0.18673E+00  0.00000E+00 -0.19652E+00  0.18690E+00  0.00000E+00 -0.20797E+00  0.18613E+00  0.00000E+00 -0.21312E+00  0.18741E+00  0.00000E+00 -0.21712E+00  0.18550E+00  0.00000E+00 -0.23213E+00  0.18601E+00  0.00000E+00 -0.24071E+00
          0.35855E+00  0.00000E+00 -0.97027E-03  0.37164E+00  0.00000E+00 -0.14088E-01  0.38641E+00  0.00000E+00 -0.19325E-01  0.36595E+00  0.00000E+00 -0.29323E-01  0.40428E+00  0.00000E+00 -0.45443E-01  0.39108E+00  0.00000E+00 -0.43632E-01
          0.35411E+00  0.00000E+00 -0.59521E-01  0.33787E+00  0.00000E+00 -0.73603E-01  0.30861E+00  0.00000E+00 -0.64000E-01  0.25689E+00  0.00000E+00 -0.96013E-01  0.21328E+00  0.00000E+00 -0.10721E+00  0.19728E+00  0.00000E+00 -0.10952E+00
          0.17593E+00  0.00000E+00 -0.12167E+00  0.17819E+00  0.00000E+00 -0.12635E+00  0.18095E+00  0.00000E+00 -0.13209E+00  0.18463E+00  0.00000E+00 -0.13884E+00  0.18830E+00  0.00000E+00 -0.14502E+00  0.19173E+00  0.00000E+00 -0.15123E+00
          0.19449E+00  0.00000E+00 -0.15784E+00  0.19727E+00  0.00000E+00 -0.16489E+00  0.19909E+00  0.00000E+00 -0.17150E+00  0.20122E+00  0.00000E+00 -0.17809E+00  0.20269E+00  0.00000E+00 -0.18652E+00  0.20344E+00  0.00000E+00 -0.19288E+00
          0.20485E+00  0.00000E+00 -0.19887E+00  0.20532E+00  0.00000E+00 -0.21022E+00  0.20455E+00  0.00000E+00 -0.21505E+00  0.20621E+00  0.00000E+00 -0.21916E+00  0.20424E+00  0.00000E+00 -0.23384E+00  0.20485E+00  0.00000E+00 -0.24242E+00
          0.38834E+00  0.00000E+00 -0.10385E-02  0.40475E+00  0.00000E+00 -0.15476E-01  0.41953E+00  0.00000E+00 -0.19836E-01  0.39977E+00  0.00000E+00 -0.27393E-01  0.43691E+00  0.00000E+00 -0.44008E-01  0.42426E+00  0.00000E+00 -0.41494E-01
          0.38780E+00  0.00000E+00 -0.59759E-01  0.37087E+00  0.00000E+00 -0.71515E-01  0.33921E+00  0.00000E+00 -0.72489E-01  0.30424E+00  0.00000E+00 -0.87984E-01  0.25810E+00  0.00000E+00 -0.10254E+00  0.22091E+00  0.00000E+00 -0.10938E+00
          0.19370E+00  0.00000E+00 -0.12246E+00  0.19481E+00  0.00000E+00 -0.12834E+00  0.19719E+00  0.00000E+00 -0.13379E+00  0.20046E+00  0.00000E+00 -0.14042E+00  0.20448E+00  0.00000E+00 -0.14700E+00  0.20824E+00  0.00000E+00 -0.15325E+00
          0.21136E+00  0.00000E+00 -0.15995E+00  0.21455E+00  0.00000E+00 -0.16718E+00  0.21669E+00  0.00000E+00 -0.17386E+00  0.21914E+00  0.00000E+00 -0.18057E+00  0.22089E+00  0.00000E+00 -0.18906E+00  0.22182E+00  0.00000E+00 -0.19538E+00
          0.22345E+00  0.00000E+00 -0.20145E+00  0.22403E+00  0.00000E+00 -0.21271E+00  0.22323E+00  0.00000E+00 -0.21730E+00  0.22507E+00  0.00000E+00 -0.22159E+00  0.22294E+00  0.00000E+00 -0.23597E+00  0.22350E+00  0.00000E+00 -0.24419E+00
          0.42276E+00  0.00000E+00 -0.58430E-03  0.43934E+00  0.00000E+00 -0.15488E-01  0.45296E+00  0.00000E+00 -0.19684E-01  0.43188E+00  0.00000E+00 -0.25589E-01  0.46934E+00  0.00000E+00 -0.43399E-01  0.45612E+00  0.00000E+00 -0.40398E-01
          0.42137E+00  0.00000E+00 -0.59077E-01  0.40446E+00  0.00000E+00 -0.67071E-01  0.37190E+00  0.00000E+00 -0.72648E-01  0.33768E+00  0.00000E+00 -0.88161E-01  0.30022E+00  0.00000E+00 -0.99014E-01  0.25917E+00  0.00000E+00 -0.10729E+00
          0.21992E+00  0.00000E+00 -0.12291E+00  0.21445E+00  0.00000E+00 -0.13032E+00  0.21466E+00  0.00000E+00 -0.13744E+00  0.21741E+00  0.00000E+00 -0.14355E+00  0.22149E+00  0.00000E+00 -0.14988E+00  0.22544E+00  0.00000E+00 -0.15619E+00
          0.22867E+00  0.00000E+00 -0.16267E+00  0.23202E+00  0.00000E+00 -0.16971E+00  0.23425E+00  0.00000E+00 -0.17618E+00  0.23683E+00  0.00000E+00 -0.18272E+00  0.23868E+00  0.00000E+00 -0.19102E+00  0.23965E+00  0.00000E+00 -0.19703E+00
          0.24143E+00  0.00000E+00 -0.20303E+00  0.24213E+00  0.00000E+00 -0.21415E+00  0.24125E+00  0.00000E+00 -0.21831E+00  0.24343E+00  0.00000E+00 -0.22273E+00  0.24116E+00  0.00000E+00 -0.23681E+00  0.24180E+00  0.00000E+00 -0.24491E+00
          0.45777E+00  0.00000E+00 -0.37570E-03  0.47506E+00  0.00000E+00 -0.16078E-01  0.48666E+00  0.00000E+00 -0.19378E-01  0.46320E+00  0.00000E+00 -0.24300E-01  0.50208E+00  0.00000E+00 -0.43800E-01  0.48717E+00  0.00000E+00 -0.39855E-01
          0.45380E+00  0.00000E+00 -0.58030E-01  0.43728E+00  0.00000E+00 -0.64498E-01  0.40556E+00  0.00000E+00 -0.71956E-01  0.37225E+00  0.00000E+00 -0.86470E-01  0.33662E+00  0.00000E+00 -0.96814E-01  0.29702E+00  0.00000E+00 -0.10566E+00
          0.25373E+00  0.00000E+00 -0.12241E+00  0.23870E+00  0.00000E+00 -0.13016E+00  0.23337E+00  0.00000E+00 -0.13895E+00  0.23401E+00  0.00000E+00 -0.14581E+00  0.23777E+00  0.00000E+00 -0.15185E+00  0.24174E+00  0.00000E+00 -0.15798E+00
          0.24516E+00  0.00000E+00 -0.16433E+00  0.24878E+00  0.00000E+00 -0.17112E+00  0.25121E+00  0.00000E+00 -0.17740E+00  0.25407E+00  0.00000E+00 -0.18386E+00  0.25621E+00  0.00000E+00 -0.19205E+00  0.25735E+00  0.00000E+00 -0.19785E+00
          0.25941E+00  0.00000E+00 -0.20390E+00  0.26032E+00  0.00000E+00 -0.21500E+00  0.25938E+00  0.00000E+00 -0.21886E+00  0.26186E+00  0.00000E+00 -0.22346E+00  0.25947E+00  0.00000E+00 -0.23741E+00  0.26009E+00  0.00000E+00 -0.24530E+00
          0.49377E+00  0.00000E+00 -0.42294E-03  0.51328E+00  0.00000E+00 -0.17418E-01  0.52312E+00  0.00000E+00 -0.16961E-01  0.49501E+00  0.00000E+00 -0.24552E-01  0.53416E+00  0.00000E+00 -0.43899E-01  0.51647E+00  0.00000E+00 -0.40843E-01
          0.48486E+00  0.00000E+00 -0.57335E-01  0.46868E+00  0.00000E+00 -0.63448E-01  0.43848E+00  0.00000E+00 -0.70897E-01  0.40625E+00  0.00000E+00 -0.84726E-01  0.37182E+00  0.00000E+00 -0.93934E-01  0.33308E+00  0.00000E+00 -0.10315E+00
          0.28968E+00  0.00000E+00 -0.12005E+00  0.26791E+00  0.00000E+00 -0.12826E+00  0.25597E+00  0.00000E+00 -0.13825E+00  0.25272E+00  0.00000E+00 -0.14622E+00  0.25503E+00  0.00000E+00 -0.15273E+00  0.25861E+00  0.00000E+00 -0.15888E+00
          0.26205E+00  0.00000E+00 -0.16527E+00  0.26588E+00  0.00000E+00 -0.17198E+00  0.26847E+00  0.00000E+00 -0.17809E+00  0.27156E+00  0.00000E+00 -0.18451E+00  0.27389E+00  0.00000E+00 -0.19260E+00  0.27511E+00  0.00000E+00 -0.19812E+00
          0.27738E+00  0.00000E+00 -0.20419E+00  0.27840E+00  0.00000E+00 -0.21524E+00  0.27734E+00  0.00000E+00 -0.21864E+00  0.28019E+00  0.00000E+00 -0.22345E+00  0.27759E+00  0.00000E+00 -0.23723E+00  0.27825E+00  0.00000E+00 -0.24491E+00
          0.52907E+00  0.00000E+00 -0.44107E-03  0.55124E+00  0.00000E+00 -0.18995E-01  0.56231E+00  0.00000E+00 -0.12372E-01  0.53291E+00  0.00000E+00 -0.29535E-01  0.55614E+00  0.00000E+00 -0.35618E-01  0.54179E+00  0.00000E+00 -0.43285E-01