<?xml version="1.0"?>
<VTKFile type="UnstructuredGrid" version="0.1" byte_order="LittleEndian" compressor="vtkZLibDataCompressor">
<UnstructuredGrid>
  <Piece NumberOfPoints="1800"        NumberOfCells="1"      >
    <Points>
      <DataArray type="Float32" NumberOfComponents="3" format="ascii" >
        0.14778E-01  0.00000E+00  0.24827E-02  0.77456E-02  0.00000E+00  0.78511E-02  0.71644E-02  0.00000E+00  0.15359E-01  0.82543E-02  0.00000E+00  0.21461E-01  0.83321E-02  0.00000E+00  0.27664E-01  0.78618E-02  0.00000E+00  0.34264E-01
        0.76699E-02  0.00000E+00  0.40863E-01  0.77683E-02  0.00000E+00  0.47244E-01  0.77227E-02  0.00000E+00  0.53539E-01  0.75642E-02  0.00000E+00  0.59936E-01  0.74054E-02  0.00000E+00  0.66481E-01  0.72583E-02  0.00000E+00  0.73100E-01
        0.71396E-02  0.00000E+00  0.79820E-01  0.70295E-02  0.00000E+00  0.86632E-01  0.69336E-02  0.00000E+00  0.93525E-01  0.68483E-02  0.00000E+00  0.10049E+00  0.67715E-02  0.00000E+00  0.10754E+00  0.67011E-02  0.00000E+00  0.11465E+00
        0.66354E-02  0.00000E+00  0.12182E+00  0.65744E-02  0.00000E+00  0.12906E+00  0.65155E-02  0.00000E+00  0.13636E+00  0.64588E-02  0.00000E+00  0.14372E+00  0.64083E-02  0.00000E+00  0.15114E+00  0.63489E-02  0.00000E+00  0.15861E+00
        0.63058E-02  0.00000E+00  0.16615E+00  0.62746E-02  0.00000E+00  0.17375E+00  0.61356E-02  0.00000E+00  0.18131E+00  0.63417E-02  0.00000E+00  0.18916E+00  0.60264E-02  0.00000E+00  0.19694E+00  0.57420E-02  0.00000E+00  0.20356E+00
        0.29455E-01  0.00000E+00  0.37623E-02  0.19593E-01  0.00000E+00  0.10638E-01  0.27406E-01  0.00000E+00  0.14663E-01  0.26716E-01  0.00000E+00  0.22430E-01  0.18923E-01  0.00000E+00  0.26172E-01  0.26177E-01  0.00000E+00  0.33055E-01
        0.20347E-01  0.00000E+00  0.39136E-01  0.23663E-01  0.00000E+00  0.45730E-01  0.21844E-01  0.00000E+00  0.52333E-01  0.22085E-01  0.00000E+00  0.59209E-01  0.21654E-01  0.00000E+00  0.66063E-01  0.21414E-01  0.00000E+00  0.72942E-01
        0.21162E-01  0.00000E+00  0.79871E-01  0.20939E-01  0.00000E+00  0.86833E-01  0.20731E-01  0.00000E+00  0.93832E-01  0.20536E-01  0.00000E+00  0.10088E+00  0.20351E-01  0.00000E+00  0.10797E+00  0.20176E-01  0.00000E+00  0.11512E+00
        0.20008E-01  0.00000E+00  0.12231E+00  0.19848E-01  0.00000E+00  0.12956E+00  0.19696E-01  0.00000E+00  0.13686E+00  0.19545E-01  0.00000E+00  0.14420E+00  0.19405E-01  0.00000E+00  0.15162E+00  0.19268E-01  0.00000E+00  0.15905E+00
        0.19116E-01  0.00000E+00  0.16655E+00  0.19044E-01  0.00000E+00  0.17422E+00  0.18798E-01  0.00000E+00  0.18152E+00  0.18895E-01  0.00000E+00  0.18957E+00  0.18560E-01  0.00000E+00  0.19729E+00  0.18505E-01  0.00000E+00  0.20363E+00
        0.45852E-01  0.00000E+00  0.35779E-02  0.37031E-01  0.00000E+00  0.10246E-01  0.46131E-01  0.00000E+00  0.14397E-01  0.42923E-01  0.00000E+00  0.21797E-01  0.35901E-01  0.00000E+00  0.26707E-01  0.42778E-01  0.00000E+00  0.33593E-01
        0.35315E-01  0.00000E+00  0.39304E-01  0.39048E-01  0.00000E+00  0.46023E-01  0.36050E-01  0.00000E+00  0.52469E-01  0.36540E-01  0.00000E+00  0.59528E-01  0.35865E-01  0.00000E+00  0.66479E-01  0.35624E-01  0.00000E+00  0.73478E-01
        0.35315E-01  0.00000E+00  0.80529E-01  0.35028E-01  0.00000E+00  0.87582E-01  0.34746E-01  0.00000E+00  0.94669E-01  0.34475E-01  0.00000E+00  0.10179E+00  0.34205E-01  0.00000E+00  0.10894E+00  0.33944E-01  0.00000E+00  0.11613E+00
        0.33688E-01  0.00000E+00  0.12336E+00  0.33439E-01  0.00000E+00  0.13063E+00  0.33197E-01  0.00000E+00  0.13794E+00  0.32963E-01  0.00000E+00  0.14528E+00  0.32732E-01  0.00000E+00  0.15271E+00  0.32516E-01  0.00000E+00  0.16011E+00
        0.32299E-01  0.00000E+00  0.16758E+00  0.32104E-01  0.00000E+00  0.17524E+00  0.31904E-01  0.00000E+00  0.18244E+00  0.31759E-01  0.00000E+00  0.19050E+00  0.31524E-01  0.00000E+00  0.19810E+00  0.31402E-01  0.00000E+00  0.20434E+00
        0.65077E-01  0.00000E+00  0.35247E-02  0.55855E-01  0.00000E+00  0.90116E-02  0.59828E-01  0.00000E+00  0.16160E-01  0.61780E-01  0.00000E+00  0.23862E-01  0.51892E-01  0.00000E+00  0.26563E-01  0.58608E-01  0.00000E+00  0.33973E-01
        0.51524E-01  0.00000E+00  0.39295E-01  0.53567E-01  0.00000E+00  0.46529E-01  0.50820E-01  0.00000E+00  0.53019E-01  0.50765E-01  0.00000E+00  0.60018E-01  0.50130E-01  0.00000E+00  0.66994E-01  0.49798E-01  0.00000E+00  0.74017E-01
        0.49438E-01  0.00000E+00  0.81090E-01  0.49101E-01  0.00000E+00  0.88177E-01  0.48766E-01  0.00000E+00  0.95298E-01  0.48438E-01  0.00000E+00  0.10245E+00  0.48110E-01  0.00000E+00  0.10962E+00  0.47789E-01  0.00000E+00  0.11683E+00
        0.47471E-01  0.00000E+00  0.12407E+00  0.47160E-01  0.00000E+00  0.13134E+00  0.46855E-01  0.00000E+00  0.13864E+00  0.46560E-01  0.00000E+00  0.14597E+00  0.46267E-01  0.00000E+00  0.15337E+00  0.45992E-01  0.00000E+00  0.16073E+00
        0.45723E-01  0.00000E+00  0.16816E+00  0.45464E-01  0.00000E+00  0.17576E+00  0.45256E-01  0.00000E+00  0.18288E+00  0.45002E-01  0.00000E+00  0.19089E+00  0.44910E-01  0.00000E+00  0.19832E+00  0.44720E-01  0.00000E+00  0.20450E+00
        0.81377E-01  0.00000E+00  0.36867E-02  0.73586E-01  0.00000E+00  0.95043E-02  0.72391E-01  0.00000E+00  0.17268E-01  0.79159E-01  0.00000E+00  0.23688E-01  0.70530E-01  0.00000E+00  0.28439E-01  0.75365E-01  0.00000E+00  0.36001E-01
        0.67294E-01  0.00000E+00  0.40240E-01  0.68013E-01  0.00000E+00  0.47404E-01  0.65576E-01  0.00000E+00  0.53840E-01  0.65126E-01  0.00000E+00  0.60760E-01  0.64445E-01  0.00000E+00  0.67662E-01  0.64017E-01  0.00000E+00  0.74612E-01
        0.63597E-01  0.00000E+00  0.81630E-01  0.63200E-01  0.00000E+00  0.88671E-01  0.62806E-01  0.00000E+00  0.95753E-01  0.62417E-01  0.00000E+00  0.10287E+00  0.62029E-01  0.00000E+00  0.11002E+00  0.61645E-01  0.00000E+00  0.11721E+00
        0.61265E-01  0.00000E+00  0.12443E+00  0.60892E-01  0.00000E+00  0.13169E+00  0.60525E-01  0.00000E+00  0.13897E+00  0.60167E-01  0.00000E+00  0.14628E+00  0.59817E-01  0.00000E+00  0.15366E+00  0.59486E-01  0.00000E+00  0.16100E+00
        0.59161E-01  0.00000E+00  0.16841E+00  0.58866E-01  0.00000E+00  0.17598E+00  0.58589E-01  0.00000E+00  0.18304E+00  0.58345E-01  0.00000E+00  0.19104E+00  0.58152E-01  0.00000E+00  0.19842E+00  0.58024E-01  0.00000E+00  0.20455E+00
        0.95409E-01  0.00000E+00  0.42575E-02  0.90094E-01  0.00000E+00  0.11016E-01  0.86913E-01  0.00000E+00  0.18189E-01  0.96687E-01  0.00000E+00  0.23158E-01  0.88491E-01  0.00000E+00  0.28433E-01  0.90848E-01  0.00000E+00  0.36127E-01
        0.83881E-01  0.00000E+00  0.40998E-01  0.82762E-01  0.00000E+00  0.48197E-01  0.80491E-01  0.00000E+00  0.54579E-01  0.79637E-01  0.00000E+00  0.61326E-01  0.78924E-01  0.00000E+00  0.68170E-01  0.78374E-01  0.00000E+00  0.75051E-01
        0.77868E-01  0.00000E+00  0.81997E-01  0.77387E-01  0.00000E+00  0.88989E-01  0.76911E-01  0.00000E+00  0.96028E-01  0.76444E-01  0.00000E+00  0.10311E+00  0.75981E-01  0.00000E+00  0.11024E+00  0.75527E-01  0.00000E+00  0.11740E+00
        0.75080E-01  0.00000E+00  0.12460E+00  0.74644E-01  0.00000E+00  0.13184E+00  0.74218E-01  0.00000E+00  0.13911E+00  0.73808E-01  0.00000E+00  0.14640E+00  0.73410E-01  0.00000E+00  0.15376E+00  0.73034E-01  0.00000E+00  0.16107E+00
        0.72675E-01  0.00000E+00  0.16845E+00  0.72344E-01  0.00000E+00  0.17599E+00  0.72053E-01  0.00000E+00  0.18300E+00  0.71788E-01  0.00000E+00  0.19099E+00  0.71632E-01  0.00000E+00  0.19829E+00  0.71449E-01  0.00000E+00  0.20436E+00
        0.10577E+00  0.00000E+00  0.44572E-02  0.11161E+00  0.00000E+00  0.12096E-01  0.10245E+00  0.00000E+00  0.15996E-01  0.11295E+00  0.00000E+00  0.22336E-01  0.10603E+00  0.00000E+00  0.27395E-01  0.10489E+00  0.00000E+00  0.35020E-01
        0.10036E+00  0.00000E+00  0.41323E-01  0.97792E-01  0.00000E+00  0.48265E-01  0.95670E-01  0.00000E+00  0.54756E-01  0.94437E-01  0.00000E+00  0.61421E-01  0.93581E-01  0.00000E+00  0.68247E-01  0.92880E-01  0.00000E+00  0.75108E-01
        0.92263E-01  0.00000E+00  0.82040E-01  0.91680E-01  0.00000E+00  0.89026E-01  0.91111E-01  0.00000E+00  0.96054E-01  0.90558E-01  0.00000E+00  0.10312E+00  0.90015E-01  0.00000E+00  0.11024E+00  0.89485E-01  0.00000E+00  0.11738E+00
        0.88969E-01  0.00000E+00  0.12456E+00  0.88470E-01  0.00000E+00  0.13179E+00  0.87986E-01  0.00000E+00  0.13903E+00  0.87522E-01  0.00000E+00  0.14630E+00  0.87077E-01  0.00000E+00  0.15364E+00  0.86657E-01  0.00000E+00  0.16092E+00
        0.86261E-01  0.00000E+00  0.16828E+00  0.85901E-01  0.00000E+00  0.17579E+00  0.85573E-01  0.00000E+00  0.18276E+00  0.85298E-01  0.00000E+00  0.19074E+00  0.85079E-01  0.00000E+00  0.19801E+00  0.84890E-01  0.00000E+00  0.20406E+00
        0.11814E+00  0.00000E+00  0.40057E-02  0.12607E+00  0.00000E+00  0.11611E-01  0.12236E+00  0.00000E+00  0.19024E-01  0.13213E+00  0.00000E+00  0.22782E-01  0.12395E+00  0.00000E+00  0.28722E-01  0.11870E+00  0.00000E+00  0.34590E-01
        0.11596E+00  0.00000E+00  0.41259E-01  0.11281E+00  0.00000E+00  0.47878E-01  0.11076E+00  0.00000E+00  0.54598E-01  0.10926E+00  0.00000E+00  0.61283E-01  0.10821E+00  0.00000E+00  0.68084E-01  0.10736E+00  0.00000E+00  0.74951E-01
        0.10663E+00  0.00000E+00  0.81874E-01  0.10596E+00  0.00000E+00  0.88850E-01  0.10530E+00  0.00000E+00  0.95869E-01  0.10467E+00  0.00000E+00  0.10293E+00  0.10406E+00  0.00000E+00  0.11003E+00  0.10346E+00  0.00000E+00  0.11717E+00
        0.10288E+00  0.00000E+00  0.12433E+00  0.10232E+00  0.00000E+00  0.13154E+00  0.10178E+00  0.00000E+00  0.13877E+00  0.10126E+00  0.00000E+00  0.14603E+00  0.10077E+00  0.00000E+00  0.15335E+00  0.10031E+00  0.00000E+00  0.16061E+00
        0.99882E-01  0.00000E+00  0.16796E+00  0.99493E-01  0.00000E+00  0.17545E+00  0.99137E-01  0.00000E+00  0.18239E+00  0.98848E-01  0.00000E+00  0.19037E+00  0.98624E-01  0.00000E+00  0.19759E+00  0.98399E-01  0.00000E+00  0.20361E+00
[...]
<PointData>
      <DataArray type="Float32" Name="Velocity vectors"  NumberOfComponents="3"  format="ascii" >
          0.86603E-01  0.00000E+00 -0.81532E-03  0.18609E-01  0.00000E+00 -0.41282E-01  0.16361E-02  0.00000E+00 -0.39245E-01  0.78226E-02  0.00000E+00 -0.37416E-01  0.18678E-02  0.00000E+00 -0.34748E-01 -0.35008E-04  0.00000E+00 -0.32086E-01
          0.49236E-02  0.00000E+00 -0.28345E-01  0.12241E-01  0.00000E+00 -0.33256E-01  0.16172E-01  0.00000E+00 -0.44662E-01  0.17100E-01  0.00000E+00 -0.57083E-01  0.15653E-01  0.00000E+00 -0.69151E-01  0.14224E-01  0.00000E+00 -0.81797E-01
          0.13084E-01  0.00000E+00 -0.94045E-01  0.11760E-01  0.00000E+00 -0.10582E+00  0.10645E-01  0.00000E+00 -0.11717E+00  0.97145E-02  0.00000E+00 -0.12813E+00  0.89429E-02  0.00000E+00 -0.13871E+00  0.83168E-02  0.00000E+00 -0.14896E+00
          0.78135E-02  0.00000E+00 -0.15890E+00  0.74178E-02  0.00000E+00 -0.16858E+00  0.70582E-02  0.00000E+00 -0.17807E+00  0.67729E-02  0.00000E+00 -0.18731E+00  0.65330E-02  0.00000E+00 -0.19638E+00  0.61498E-02  0.00000E+00 -0.20544E+00
          0.61634E-02  0.00000E+00 -0.21394E+00  0.57520E-02  0.00000E+00 -0.22269E+00  0.49516E-02  0.00000E+00 -0.23165E+00  0.72896E-02  0.00000E+00 -0.23788E+00  0.35539E-02  0.00000E+00 -0.24734E+00  0.43490E-02  0.00000E+00 -0.26078E+00
          0.51645E-01  0.00000E+00  0.11119E-02  0.16157E-01  0.00000E+00  0.77884E-02  0.59953E-01  0.00000E+00 -0.30003E-01  0.26882E-01  0.00000E+00 -0.16494E-01 -0.13478E-01  0.00000E+00 -0.54936E-01  0.38537E-01  0.00000E+00 -0.52367E-01
         -0.20745E-01  0.00000E+00 -0.67597E-01  0.59318E-01  0.00000E+00 -0.80137E-01  0.18889E-01  0.00000E+00 -0.87890E-01  0.39715E-01  0.00000E+00 -0.93467E-01  0.33067E-01  0.00000E+00 -0.98515E-01  0.33038E-01  0.00000E+00 -0.10467E+00
          0.31054E-01  0.00000E+00 -0.11131E+00  0.29561E-01  0.00000E+00 -0.11826E+00  0.28188E-01  0.00000E+00 -0.12592E+00  0.26958E-01  0.00000E+00 -0.13397E+00  0.25807E-01  0.00000E+00 -0.14234E+00  0.24760E-01  0.00000E+00 -0.15101E+00
          0.23760E-01  0.00000E+00 -0.15983E+00  0.22858E-01  0.00000E+00 -0.16868E+00  0.22006E-01  0.00000E+00 -0.17771E+00  0.21201E-01  0.00000E+00 -0.18663E+00  0.20583E-01  0.00000E+00 -0.19524E+00  0.19800E-01  0.00000E+00 -0.20472E+00
          0.19119E-01  0.00000E+00 -0.21286E+00  0.18812E-01  0.00000E+00 -0.22095E+00  0.17015E-01  0.00000E+00 -0.23266E+00  0.18745E-01  0.00000E+00 -0.23559E+00  0.15808E-01  0.00000E+00 -0.24731E+00  0.17670E-01  0.00000E+00 -0.25980E+00
          0.64520E-01  0.00000E+00 -0.10683E-02  0.67374E-01  0.00000E+00 -0.69436E-02  0.10206E+00  0.00000E+00 -0.28564E-01  0.59854E-01  0.00000E+00 -0.30846E-01  0.29598E-01  0.00000E+00 -0.49034E-01  0.76987E-01  0.00000E+00 -0.63016E-01
          0.10953E-01  0.00000E+00 -0.76786E-01  0.93388E-01  0.00000E+00 -0.88714E-01  0.24882E-01  0.00000E+00 -0.10510E+00  0.52740E-01  0.00000E+00 -0.10711E+00  0.40316E-01  0.00000E+00 -0.11223E+00  0.43134E-01  0.00000E+00 -0.11619E+00
          0.42220E-01  0.00000E+00 -0.12062E+00  0.42075E-01  0.00000E+00 -0.12594E+00  0.41721E-01  0.00000E+00 -0.13183E+00  0.41325E-01  0.00000E+00 -0.13826E+00  0.40732E-01  0.00000E+00 -0.14515E+00  0.40084E-01  0.00000E+00 -0.15248E+00
          0.39330E-01  0.00000E+00 -0.16016E+00  0.38528E-01  0.00000E+00 -0.16801E+00  0.37686E-01  0.00000E+00 -0.17631E+00  0.36809E-01  0.00000E+00 -0.18469E+00  0.35866E-01  0.00000E+00 -0.19273E+00  0.34980E-01  0.00000E+00 -0.20219E+00
          0.33951E-01  0.00000E+00 -0.20993E+00  0.33102E-01  0.00000E+00 -0.21788E+00  0.32195E-01  0.00000E+00 -0.23029E+00  0.31813E-01  0.00000E+00 -0.23261E+00  0.30278E-01  0.00000E+00 -0.24575E+00  0.30625E-01  0.00000E+00 -0.25781E+00
          0.12713E+00  0.00000E+00 -0.45176E-02  0.10129E+00  0.00000E+00 -0.25434E-01  0.12359E+00  0.00000E+00 -0.31845E-01  0.98191E-01  0.00000E+00 -0.26907E-01  0.66519E-01  0.00000E+00 -0.66670E-01  0.10574E+00  0.00000E+00 -0.60159E-01
          0.46790E-01  0.00000E+00 -0.86561E-01  0.10955E+00  0.00000E+00 -0.84195E-01  0.43442E-01  0.00000E+00 -0.10154E+00  0.59147E-01  0.00000E+00 -0.10354E+00  0.50195E-01  0.00000E+00 -0.11013E+00  0.52159E-01  0.00000E+00 -0.11493E+00
          0.52154E-01  0.00000E+00 -0.12018E+00  0.52913E-01  0.00000E+00 -0.12593E+00  0.53342E-01  0.00000E+00 -0.13183E+00  0.53664E-01  0.00000E+00 -0.13821E+00  0.53702E-01  0.00000E+00 -0.14489E+00  0.53590E-01  0.00000E+00 -0.15192E+00
          0.53287E-01  0.00000E+00 -0.15933E+00  0.52850E-01  0.00000E+00 -0.16687E+00  0.52278E-01  0.00000E+00 -0.17491E+00  0.51629E-01  0.00000E+00 -0.18310E+00  0.50819E-01  0.00000E+00 -0.19098E+00  0.50063E-01  0.00000E+00 -0.20048E+00
          0.49135E-01  0.00000E+00 -0.20822E+00  0.48224E-01  0.00000E+00 -0.21636E+00  0.47716E-01  0.00000E+00 -0.22901E+00  0.46567E-01  0.00000E+00 -0.23110E+00  0.47024E-01  0.00000E+00 -0.24490E+00  0.46370E-01  0.00000E+00 -0.25749E+00
          0.15974E+00  0.00000E+00 -0.30045E-02  0.14839E+00  0.00000E+00 -0.16079E-01  0.10983E+00  0.00000E+00 -0.16564E-01  0.13458E+00  0.00000E+00 -0.21038E-01  0.10966E+00  0.00000E+00 -0.40048E-01  0.15816E+00  0.00000E+00 -0.41613E-01
          0.82296E-01  0.00000E+00 -0.83051E-01  0.11625E+00  0.00000E+00 -0.79701E-01  0.63190E-01  0.00000E+00 -0.95627E-01  0.68527E-01  0.00000E+00 -0.97374E-01  0.61469E-01  0.00000E+00 -0.10434E+00  0.62989E-01  0.00000E+00 -0.11005E+00
          0.63692E-01  0.00000E+00 -0.11576E+00  0.64933E-01  0.00000E+00 -0.12224E+00  0.65898E-01  0.00000E+00 -0.12882E+00  0.66736E-01  0.00000E+00 -0.13579E+00  0.67282E-01  0.00000E+00 -0.14301E+00  0.67637E-01  0.00000E+00 -0.15051E+00
          0.67759E-01  0.00000E+00 -0.15829E+00  0.67702E-01  0.00000E+00 -0.16613E+00  0.67442E-01  0.00000E+00 -0.17443E+00  0.67041E-01  0.00000E+00 -0.18278E+00  0.66450E-01  0.00000E+00 -0.19081E+00  0.65783E-01  0.00000E+00 -0.20047E+00
          0.64997E-01  0.00000E+00 -0.20819E+00  0.64190E-01  0.00000E+00 -0.21653E+00  0.63413E-01  0.00000E+00 -0.22932E+00  0.62774E-01  0.00000E+00 -0.23141E+00  0.61926E-01  0.00000E+00 -0.24567E+00  0.62073E-01  0.00000E+00 -0.25791E+00
          0.18718E+00  0.00000E+00 -0.49150E-02  0.15267E+00  0.00000E+00 -0.10829E-01  0.12435E+00  0.00000E+00 -0.18886E-01  0.16640E+00  0.00000E+00 -0.35362E-01  0.14697E+00  0.00000E+00 -0.49750E-01  0.19374E+00  0.00000E+00 -0.44568E-01
          0.12709E+00  0.00000E+00 -0.78700E-01  0.12115E+00  0.00000E+00 -0.73605E-01  0.78979E-01  0.00000E+00 -0.85270E-01  0.76879E-01  0.00000E+00 -0.89625E-01  0.74020E-01  0.00000E+00 -0.96867E-01  0.75127E-01  0.00000E+00 -0.10300E+00
          0.76746E-01  0.00000E+00 -0.10996E+00  0.78574E-01  0.00000E+00 -0.11738E+00  0.80044E-01  0.00000E+00 -0.12488E+00  0.81266E-01  0.00000E+00 -0.13278E+00  0.82109E-01  0.00000E+00 -0.14078E+00  0.82678E-01  0.00000E+00 -0.14895E+00
          0.82964E-01  0.00000E+00 -0.15729E+00  0.83043E-01  0.00000E+00 -0.16556E+00  0.82878E-01  0.00000E+00 -0.17421E+00  0.82586E-01  0.00000E+00 -0.18277E+00  0.82106E-01  0.00000E+00 -0.19100E+00  0.81515E-01  0.00000E+00 -0.20085E+00
          0.80894E-01  0.00000E+00 -0.20854E+00  0.80147E-01  0.00000E+00 -0.21711E+00  0.79568E-01  0.00000E+00 -0.23003E+00  0.78993E-01  0.00000E+00 -0.23185E+00  0.78830E-01  0.00000E+00 -0.24660E+00  0.78601E-01  0.00000E+00 -0.25903E+00
          0.19807E+00  0.00000E+00 -0.35982E-02  0.22069E+00  0.00000E+00 -0.10783E-01  0.15496E+00  0.00000E+00 -0.48171E-01  0.20155E+00  0.00000E+00 -0.38839E-01  0.16503E+00  0.00000E+00 -0.79196E-01  0.19498E+00  0.00000E+00 -0.63358E-01
          0.15813E+00  0.00000E+00 -0.68463E-01  0.12780E+00  0.00000E+00 -0.67978E-01  0.98802E-01  0.00000E+00 -0.77100E-01  0.90605E-01  0.00000E+00 -0.86069E-01  0.89512E-01  0.00000E+00 -0.93780E-01  0.90448E-01  0.00000E+00 -0.10113E+00
          0.92665E-01  0.00000E+00 -0.10898E+00  0.94698E-01  0.00000E+00 -0.11679E+00  0.96319E-01  0.00000E+00 -0.12465E+00  0.97573E-01  0.00000E+00 -0.13275E+00  0.98420E-01  0.00000E+00 -0.14086E+00  0.98970E-01  0.00000E+00 -0.14913E+00
          0.99245E-01  0.00000E+00 -0.15754E+00  0.99332E-01  0.00000E+00 -0.16589E+00  0.99199E-01  0.00000E+00 -0.17468E+00  0.98965E-01  0.00000E+00 -0.18334E+00  0.98554E-01  0.00000E+00 -0.19172E+00  0.98048E-01  0.00000E+00 -0.20175E+00
          0.97518E-01  0.00000E+00 -0.20949E+00  0.96852E-01  0.00000E+00 -0.21828E+00  0.96274E-01  0.00000E+00 -0.23131E+00  0.95831E-01  0.00000E+00 -0.23315E+00  0.95040E-01  0.00000E+00 -0.24809E+00  0.95043E-01  0.00000E+00 -0.26037E+00
          0.21755E+00  0.00000E+00 -0.61791E-02  0.22925E+00  0.00000E+00 -0.84989E-02  0.20892E+00  0.00000E+00 -0.14785E-01  0.27504E+00  0.00000E+00 -0.51020E-01  0.23339E+00  0.00000E+00 -0.47063E-01  0.17803E+00  0.00000E+00 -0.78470E-01
          0.17531E+00  0.00000E+00 -0.72589E-01  0.14091E+00  0.00000E+00 -0.77884E-01  0.12248E+00  0.00000E+00 -0.81828E-01  0.11029E+00  0.00000E+00 -0.90572E-01  0.10705E+00  0.00000E+00 -0.98091E-01  0.10692E+00  0.00000E+00 -0.10518E+00
          0.10860E+00  0.00000E+00 -0.11251E+00  0.11038E+00  0.00000E+00 -0.11979E+00  0.11194E+00  0.00000E+00 -0.12724E+00  0.11322E+00  0.00000E+00 -0.13497E+00  0.11416E+00  0.00000E+00 -0.14283E+00  0.11483E+00  0.00000E+00 -0.15094E+00
          0.11524E+00  0.00000E+00 -0.15925E+00  0.11547E+00  0.00000E+00 -0.16756E+00  0.11545E+00  0.00000E+00 -0.17634E+00  0.11533E+00  0.00000E+00 -0.18498E+00  0.11503E+00  0.00000E+00 -0.19340E+00  0.11459E+00  0.00000E+00 -0.20346E+00
          0.11419E+00  0.00000E+00 -0.21113E+00  0.11356E+00  0.00000E+00 -0.22001E+00  0.11300E+00  0.00000E+00 -0.23303E+00  0.11269E+00  0.00000E+00 -0.23469E+00  0.11201E+00  0.00000E+00 -0.24988E+00  0.11192E+00  0.00000E+00 -0.26212E+00
          0.23858E+00  0.00000E+00 -0.44818E-02  0.23304E+00  0.00000E+00 -0.14995E-03  0.27244E+00  0.00000E+00 -0.31599E-01  0.29029E+00  0.00000E+00 -0.15169E-01  0.24289E+00  0.00000E+00 -0.35754E-01  0.19969E+00  0.00000E+00 -0.73241E-01
          0.19286E+00  0.00000E+00 -0.64080E-01  0.14083E+00  0.00000E+00 -0.85412E-01  0.13814E+00  0.00000E+00 -0.85061E-01  0.12410E+00  0.00000E+00 -0.91899E-01  0.12115E+00  0.00000E+00 -0.97965E-01  0.12132E+00  0.00000E+00 -0.10461E+00
          0.12311E+00  0.00000E+00 -0.11161E+00  0.12528E+00  0.00000E+00 -0.11890E+00  0.12729E+00  0.00000E+00 -0.12656E+00  0.12895E+00  0.00000E+00 -0.13452E+00  0.13022E+00  0.00000E+00 -0.14270E+00  0.13113E+00  0.00000E+00 -0.15114E+00
          0.13172E+00  0.00000E+00 -0.15974E+00  0.13208E+00  0.00000E+00 -0.16832E+00  0.13216E+00  0.00000E+00 -0.17735E+00  0.13213E+00  0.00000E+00 -0.18616E+00  0.13190E+00  0.00000E+00 -0.19475E+00  0.13153E+00  0.00000E+00 -0.20497E+00
          0.13119E+00  0.00000E+00 -0.21267E+00  0.13062E+00  0.00000E+00 -0.22173E+00  0.13008E+00  0.00000E+00 -0.23479E+00  0.12978E+00  0.00000E+00 -0.23643E+00  0.12880E+00  0.00000E+00 -0.25174E+00  0.12876E+00  0.00000E+00 -0.26393E+00
          0.24575E+00  0.00000E+00 -0.45937E-02  0.27113E+00  0.00000E+00 -0.15105E-01  0.29670E+00  0.00000E+00 -0.29624E-01  0.26535E+00  0.00000E+00 -0.33507E-01  0.29766E+00  0.00000E+00 -0.21416E-01  0.24685E+00  0.00000E+00 -0.56195E-01
          0.21435E+00  0.00000E+00 -0.57982E-01  0.16284E+00  0.00000E+00 -0.83859E-01  0.15251E+00  0.00000E+00 -0.86882E-01  0.14083E+00  0.00000E+00 -0.95588E-01  0.13653E+00  0.00000E+00 -0.10241E+00  0.13748E+00  0.00000E+00 -0.10928E+00
          0.13935E+00  0.00000E+00 -0.11647E+00  0.14176E+00  0.00000E+00 -0.12377E+00  0.14402E+00  0.00000E+00 -0.13133E+00  0.14585E+00  0.00000E+00 -0.13907E+00  0.14723E+00  0.00000E+00 -0.14699E+00  0.14819E+00  0.00000E+00 -0.15515E+00
          0.14880E+00  0.00000E+00 -0.16345E+00  0.14917E+00  0.00000E+00 -0.17177E+00  0.14925E+00  0.00000E+00 -0.18057E+00  0.14923E+00  0.00000E+00 -0.18916E+00  0.14902E+00  0.00000E+00 -0.19761E+00  0.14865E+00  0.00000E+00 -0.20768E+00
          0.14836E+00  0.00000E+00 -0.21522E+00  0.14778E+00  0.00000E+00 -0.22426E+00  0.14719E+00  0.00000E+00 -0.23717E+00  0.14696E+00  0.00000E+00 -0.23868E+00  0.14586E+00  0.00000E+00 -0.25409E+00  0.14579E+00  0.00000E+00 -0.26608E+00
          0.27729E+00  0.00000E+00 -0.45478E-02  0.30935E+00  0.00000E+00 -0.20240E-01  0.31369E+00  0.00000E+00 -0.15529E-01  0.26613E+00  0.00000E+00 -0.31019E-01  0.32511E+00  0.00000E+00 -0.36125E-01  0.29171E+00  0.00000E+00 -0.61226E-01
          0.26086E+00  0.00000E+00 -0.52292E-01  0.19971E+00  0.00000E+00 -0.79659E-01  0.17981E+00  0.00000E+00 -0.88241E-01  0.16199E+00  0.00000E+00 -0.10012E+00  0.15401E+00  0.00000E+00 -0.10856E+00  0.15377E+00  0.00000E+00 -0.11562E+00
          0.15486E+00  0.00000E+00 -0.12259E+00  0.15702E+00  0.00000E+00 -0.12950E+00  0.15928E+00  0.00000E+00 -0.13651E+00  0.16123E+00  0.00000E+00 -0.14373E+00  0.16279E+00  0.00000E+00 -0.15116E+00  0.16397E+00  0.00000E+00 -0.15888E+00
          0.16479E+00  0.00000E+00 -0.16682E+00  0.16536E+00  0.00000E+00 -0.17484E+00  0.16562E+00  0.00000E+00 -0.18341E+00  0.16577E+00  0.00000E+00 -0.19178E+00  0.16572E+00  0.00000E+00 -0.20012E+00  0.16547E+00  0.00000E+00 -0.21009E+00
          0.16531E+00  0.00000E+00 -0.21748E+00  0.16482E+00  0.00000E+00 -0.22655E+00  0.16426E+00  0.00000E+00 -0.23936E+00  0.16408E+00  0.00000E+00 -0.24078E+00  0.16282E+00  0.00000E+00 -0.25625E+00  0.16281E+00  0.00000E+00 -0.26817E+00
          0.31848E+00  0.00000E+00 -0.17264E-02  0.33018E+00  0.00000E+00 -0.14979E-01  0.33806E+00  0.00000E+00 -0.18917E-01  0.29633E+00  0.00000E+00 -0.31362E-01  0.35545E+00  0.00000E+00 -0.38142E-01  0.32311E+00  0.00000E+00 -0.60962E-01
          0.29126E+00  0.00000E+00 -0.57936E-01  0.23832E+00  0.00000E+00 -0.78910E-01  0.21032E+00  0.00000E+00 -0.85840E-01  0.18595E+00  0.00000E+00 -0.98671E-01  0.17236E+00  0.00000E+00 -0.10899E+00  0.16991E+00  0.00000E+00 -0.11732E+00
          0.16987E+00  0.00000E+00 -0.12502E+00  0.17175E+00  0.00000E+00 -0.13235E+00  0.17411E+00  0.00000E+00 -0.13963E+00  0.17632E+00  0.00000E+00 -0.14701E+00  0.17820E+00  0.00000E+00 -0.15450E+00  0.17969E+00  0.00000E+00 -0.16224E+00
          0.18079E+00  0.00000E+00 -0.17013E+00  0.18162E+00  0.00000E+00 -0.17809E+00  0.18209E+00  0.00000E+00 -0.18657E+00  0.18244E+00  0.00000E+00 -0.19481E+00  0.18254E+00  0.00000E+00 -0.20308E+00  0.18243E+00  0.00000E+00 -0.21293E+00
          0.18238E+00  0.00000E+00 -0.22018E+00  0.18196E+00  0.00000E+00 -0.22925E+00  0.18142E+00  0.00000E+00 -0.24188E+00  0.18131E+00  0.00000E+00 -0.24323E+00  0.17993E+00  0.00000E+00 -0.25876E+00  0.17991E+00  0.00000E+00 -0.27044E+00
          0.34370E+00  0.00000E+00 -0.17084E-02  0.35701E+00  0.00000E+00 -0.16582E-01  0.36658E+00  0.00000E+00 -0.20612E-01  0.32604E+00  0.00000E+00 -0.33811E-01  0.38450E+00  0.00000E+00 -0.42668E-01  0.35625E+00  0.00000E+00 -0.60599E-01
          0.31998E+00  0.00000E+00 -0.59396E-01  0.26932E+00  0.00000E+00 -0.80434E-01  0.24087E+00  0.00000E+00 -0.85540E-01  0.21359E+00  0.00000E+00 -0.97836E-01  0.19572E+00  0.00000E+00 -0.10886E+00  0.18981E+00  0.00000E+00 -0.11816E+00
          0.18742E+00  0.00000E+00 -0.12703E+00  0.18807E+00  0.00000E+00 -0.13495E+00  0.18986E+00  0.00000E+00 -0.14258E+00  0.19184E+00  0.00000E+00 -0.15012E+00  0.19368E+00  0.00000E+00 -0.15763E+00  0.19525E+00  0.00000E+00 -0.16532E+00
          0.19649E+00  0.00000E+00 -0.17310E+00  0.19749E+00  0.00000E+00 -0.18094E+00  0.19815E+00  0.00000E+00 -0.18931E+00  0.19870E+00  0.00000E+00 -0.19740E+00  0.19900E+00  0.00000E+00 -0.20559E+00  0.19904E+00  0.00000E+00 -0.21533E+00
          0.19918E+00  0.00000E+00 -0.22244E+00  0.19889E+00  0.00000E+00 -0.23155E+00  0.19840E+00  0.00000E+00 -0.24403E+00  0.19843E+00  0.00000E+00 -0.24529E+00  0.19695E+00  0.00000E+00 -0.26089E+00  0.19702E+00  0.00000E+00 -0.27246E+00
          0.37171E+00  0.00000E+00 -0.20357E-02  0.38735E+00  0.00000E+00 -0.18194E-01  0.39827E+00  0.00000E+00 -0.21627E-01  0.35647E+00  0.00000E+00 -0.36940E-01  0.41273E+00  0.00000E+00 -0.45186E-01  0.38621E+00  0.00000E+00 -0.60948E-01
          0.34850E+00  0.00000E+00 -0.61621E-01  0.30106E+00  0.00000E+00 -0.81658E-01  0.26909E+00  0.00000E+00 -0.86937E-01  0.23953E+00  0.00000E+00 -0.98897E-01  0.21908E+00  0.00000E+00 -0.10946E+00  0.21035E+00  0.00000E+00 -0.11826E+00
          0.20549E+00  0.00000E+00 -0.12749E+00  0.20462E+00  0.00000E+00 -0.13574E+00  0.20559E+00  0.00000E+00 -0.14363E+00  0.20722E+00  0.00000E+00 -0.15144E+00  0.20902E+00  0.00000E+00 -0.15913E+00  0.21071E+00  0.00000E+00 -0.16698E+00
          0.21215E+00  0.00000E+00 -0.17488E+00  0.21339E+00  0.00000E+00 -0.18283E+00  0.21430E+00  0.00000E+00 -0.19129E+00  0.21509E+00  0.00000E+00 -0.19941E+00  0.21562E+00  0.00000E+00 -0.20769E+00  0.21586E+00  0.00000E+00 -0.21745E+00
          0.21617E+00  0.00000E+00 -0.22451E+00  0.21601E+00  0.00000E+00 -0.23374E+00  0.21558E+00  0.00000E+00 -0.24611E+00  0.21573E+00  0.00000E+00 -0.24734E+00  0.21414E+00  0.00000E+00 -0.26307E+00  0.21424E+00  0.00000E+00 -0.27444E+00
          0.40342E+00  0.00000E+00 -0.24590E-02  0.42089E+00  0.00000E+00 -0.19659E-01  0.43258E+00  0.00000E+00 -0.21450E-01  0.38753E+00  0.00000E+00 -0.40623E-01  0.43865E+00  0.00000E+00 -0.45911E-01  0.41320E+00  0.00000E+00 -0.61362E-01
          0.37598E+00  0.00000E+00 -0.62681E-01  0.33155E+00  0.00000E+00 -0.81668E-01  0.29657E+00  0.00000E+00 -0.87123E-01  0.26454E+00  0.00000E+00 -0.98967E-01  0.24224E+00  0.00000E+00 -0.10949E+00  0.23158E+00  0.00000E+00 -0.11806E+00
          0.22477E+00  0.00000E+00 -0.12751E+00  0.22250E+00  0.00000E+00 -0.13601E+00  0.22256E+00  0.00000E+00 -0.14420E+00  0.22366E+00  0.00000E+00 -0.15232E+00  0.22521E+00  0.00000E+00 -0.16026E+00  0.22684E+00  0.00000E+00 -0.16830E+00
          0.22832E+00  0.00000E+00 -0.17634E+00  0.22966E+00  0.00000E+00 -0.18440E+00  0.23069E+00  0.00000E+00 -0.19294E+00  0.23164E+00  0.00000E+00 -0.20106E+00  0.23232E+00  0.00000E+00 -0.20942E+00  0.23269E+00  0.00000E+00 -0.21919E+00
          0.23316E+00  0.00000E+00 -0.22617E+00  0.23312E+00  0.00000E+00 -0.23554E+00  0.23273E+00  0.00000E+00 -0.24779E+00  0.23304E+00  0.00000E+00 -0.24895E+00  0.23133E+00  0.00000E+00 -0.26482E+00  0.23155E+00  0.00000E+00 -0.27607E+00
          0.43842E+00  0.00000E+00 -0.28177E-02  0.45655E+00  0.00000E+00 -0.20683E-01  0.46914E+00  0.00000E+00 -0.19537E-01  0.41952E+00  0.00000E+00 -0.44894E-01  0.46007E+00  0.00000E+00 -0.44023E-01  0.43645E+00  0.00000E+00 -0.61218E-01
          0.40172E+00  0.00000E+00 -0.62104E-01  0.36044E+00  0.00000E+00 -0.80178E-01  0.32366E+00  0.00000E+00 -0.86132E-01  0.28945E+00  0.00000E+00 -0.98192E-01  0.26521E+00  0.00000E+00 -0.10899E+00  0.25276E+00  0.00000E+00 -0.11750E+00
          0.24420E+00  0.00000E+00 -0.12703E+00  0.24067E+00  0.00000E+00 -0.13564E+00  0.23982E+00  0.00000E+00 -0.14396E+00  0.24035E+00  0.00000E+00 -0.15227E+00  0.24161E+00  0.00000E+00 -0.16040E+00  0.24314E+00  0.00000E+00 -0.16864E+00
          0.24465E+00  0.00000E+00 -0.17685E+00  0.24611E+00  0.00000E+00 -0.18509E+00  0.24729E+00  0.00000E+00 -0.19380E+00  0.24841E+00  0.00000E+00 -0.20202E+00  0.24928E+00  0.00000E+00 -0.21056E+00  0.24981E+00  0.00000E+00 -0.22043E+00
          0.25043E+00  0.00000E+00 -0.22741E+00  0.25051E+00  0.00000E+00 -0.23701E+00  0.25016E+00  0.00000E+00 -0.24918E+00  0.25059E+00  0.00000E+00 -0.25034E+00  0.24876E+00  0.00000E+00 -0.26643E+00  0.24904E+00  0.00000E+00 -0.27751E+00
          0.47559E+00  0.00000E+00 -0.30014E-02  0.49162E+00  0.00000E+00 -0.20359E-01  0.50689E+00  0.00000E+00 -0.14105E-01  0.45221E+00  0.00000E+00 -0.47960E-01  0.47512E+00  0.00000E+00 -0.38167E-01  0.45497E+00  0.00000E+00 -0.59580E-01