<?xml version="1.0"?>
<VTKFile type="UnstructuredGrid" version="0.1" byte_order="LittleEndian" compressor="vtkZLibDataCompressor">
<UnstructuredGrid>
  <Piece NumberOfPoints="1800"        NumberOfCells="1"      >
    <Points>
      <DataArray type="Float32" NumberOfComponents="3" format="ascii" >
        0.57540E-02  0.00000E+00  0.42717E-02  0.54108E-02  0.00000E+00  0.13733E-01  0.53849E-02  0.00000E+00  0.22844E-01  0.53850E-02  0.00000E+00  0.32076E-01  0.53823E-02  0.00000E+00  0.41276E-01  0.53783E-02  0.00000E+00  0.50486E-01
        0.53685E-02  0.00000E+00  0.59705E-01  0.53576E-02  0.00000E+00  0.68940E-01  0.53449E-02  0.00000E+00  0.78194E-01  0.53311E-02  0.00000E+00  0.87469E-01  0.53166E-02  0.00000E+00  0.96768E-01  0.53014E-02  0.00000E+00  0.10609E+00
        0.52859E-02  0.00000E+00  0.11544E+00  0.52701E-02  0.00000E+00  0.12482E+00  0.52542E-02  0.00000E+00  0.13423E+00  0.52382E-02  0.00000E+00  0.14366E+00  0.52223E-02  0.00000E+00  0.15312E+00  0.52066E-02  0.00000E+00  0.16262E+00
        0.51910E-02  0.00000E+00  0.17214E+00  0.51759E-02  0.00000E+00  0.18169E+00  0.51612E-02  0.00000E+00  0.19126E+00  0.51470E-02  0.00000E+00  0.20087E+00  0.51340E-02  0.00000E+00  0.21050E+00  0.51211E-02  0.00000E+00  0.22015E+00
        0.51117E-02  0.00000E+00  0.22983E+00  0.51000E-02  0.00000E+00  0.23953E+00  0.50988E-02  0.00000E+00  0.24926E+00  0.50841E-02  0.00000E+00  0.25897E+00  0.51009E-02  0.00000E+00  0.26877E+00  0.50623E-02  0.00000E+00  0.27834E+00
        0.16731E-01  0.00000E+00  0.46931E-02  0.16303E-01  0.00000E+00  0.14056E-01  0.16238E-01  0.00000E+00  0.23073E-01  0.16246E-01  0.00000E+00  0.32236E-01  0.16221E-01  0.00000E+00  0.41401E-01  0.16205E-01  0.00000E+00  0.50581E-01
        0.16177E-01  0.00000E+00  0.59782E-01  0.16146E-01  0.00000E+00  0.69003E-01  0.16112E-01  0.00000E+00  0.78244E-01  0.16075E-01  0.00000E+00  0.87508E-01  0.16036E-01  0.00000E+00  0.96796E-01  0.15995E-01  0.00000E+00  0.10611E+00
        0.15953E-01  0.00000E+00  0.11545E+00  0.15910E-01  0.00000E+00  0.12481E+00  0.15866E-01  0.00000E+00  0.13421E+00  0.15822E-01  0.00000E+00  0.14363E+00  0.15778E-01  0.00000E+00  0.15308E+00  0.15735E-01  0.00000E+00  0.16256E+00
        0.15691E-01  0.00000E+00  0.17207E+00  0.15649E-01  0.00000E+00  0.18161E+00  0.15607E-01  0.00000E+00  0.19117E+00  0.15566E-01  0.00000E+00  0.20076E+00  0.15527E-01  0.00000E+00  0.21039E+00  0.15490E-01  0.00000E+00  0.22003E+00
        0.15456E-01  0.00000E+00  0.22970E+00  0.15422E-01  0.00000E+00  0.23939E+00  0.15399E-01  0.00000E+00  0.24912E+00  0.15365E-01  0.00000E+00  0.25881E+00  0.15357E-01  0.00000E+00  0.26861E+00  0.15320E-01  0.00000E+00  0.27824E+00
        0.27444E-01  0.00000E+00  0.47524E-02  0.27146E-01  0.00000E+00  0.14184E-01  0.27086E-01  0.00000E+00  0.23249E-01  0.27057E-01  0.00000E+00  0.32432E-01  0.27022E-01  0.00000E+00  0.41610E-01  0.26983E-01  0.00000E+00  0.50791E-01
        0.26936E-01  0.00000E+00  0.59993E-01  0.26883E-01  0.00000E+00  0.69212E-01  0.26824E-01  0.00000E+00  0.78450E-01  0.26762E-01  0.00000E+00  0.87710E-01  0.26696E-01  0.00000E+00  0.96992E-01  0.26627E-01  0.00000E+00  0.10630E+00
        0.26555E-01  0.00000E+00  0.11563E+00  0.26483E-01  0.00000E+00  0.12499E+00  0.26409E-01  0.00000E+00  0.13437E+00  0.26334E-01  0.00000E+00  0.14379E+00  0.26259E-01  0.00000E+00  0.15323E+00  0.26184E-01  0.00000E+00  0.16270E+00
        0.26110E-01  0.00000E+00  0.17220E+00  0.26037E-01  0.00000E+00  0.18172E+00  0.25965E-01  0.00000E+00  0.19128E+00  0.25896E-01  0.00000E+00  0.20086E+00  0.25829E-01  0.00000E+00  0.21048E+00  0.25767E-01  0.00000E+00  0.22011E+00
        0.25709E-01  0.00000E+00  0.22978E+00  0.25659E-01  0.00000E+00  0.23946E+00  0.25616E-01  0.00000E+00  0.24919E+00  0.25581E-01  0.00000E+00  0.25888E+00  0.25565E-01  0.00000E+00  0.26869E+00  0.25562E-01  0.00000E+00  0.27827E+00
        0.38234E-01  0.00000E+00  0.47032E-02  0.38073E-01  0.00000E+00  0.14171E-01  0.38016E-01  0.00000E+00  0.23268E-01  0.37987E-01  0.00000E+00  0.32479E-01  0.37945E-01  0.00000E+00  0.41672E-01  0.37894E-01  0.00000E+00  0.50865E-01
        0.37831E-01  0.00000E+00  0.60075E-01  0.37758E-01  0.00000E+00  0.69297E-01  0.37678E-01  0.00000E+00  0.78536E-01  0.37591E-01  0.00000E+00  0.87795E-01  0.37499E-01  0.00000E+00  0.97074E-01  0.37403E-01  0.00000E+00  0.10638E+00
        0.37303E-01  0.00000E+00  0.11570E+00  0.37201E-01  0.00000E+00  0.12505E+00  0.37097E-01  0.00000E+00  0.13443E+00  0.36992E-01  0.00000E+00  0.14384E+00  0.36886E-01  0.00000E+00  0.15327E+00  0.36780E-01  0.00000E+00  0.16273E+00
        0.36675E-01  0.00000E+00  0.17222E+00  0.36571E-01  0.00000E+00  0.18174E+00  0.36469E-01  0.00000E+00  0.19129E+00  0.36370E-01  0.00000E+00  0.20086E+00  0.36275E-01  0.00000E+00  0.21046E+00  0.36186E-01  0.00000E+00  0.22009E+00
        0.36102E-01  0.00000E+00  0.22975E+00  0.36028E-01  0.00000E+00  0.23941E+00  0.35964E-01  0.00000E+00  0.24913E+00  0.35911E-01  0.00000E+00  0.25881E+00  0.35874E-01  0.00000E+00  0.26859E+00  0.35844E-01  0.00000E+00  0.27819E+00
        0.49014E-01  0.00000E+00  0.47099E-02  0.48932E-01  0.00000E+00  0.14169E-01  0.48891E-01  0.00000E+00  0.23272E-01  0.48859E-01  0.00000E+00  0.32485E-01  0.48812E-01  0.00000E+00  0.41681E-01  0.48751E-01  0.00000E+00  0.50878E-01
        0.48674E-01  0.00000E+00  0.60090E-01  0.48584E-01  0.00000E+00  0.69314E-01  0.48483E-01  0.00000E+00  0.78552E-01  0.48372E-01  0.00000E+00  0.87810E-01  0.48255E-01  0.00000E+00  0.97087E-01  0.48132E-01  0.00000E+00  0.10639E+00
        0.48004E-01  0.00000E+00  0.11571E+00  0.47872E-01  0.00000E+00  0.12506E+00  0.47737E-01  0.00000E+00  0.13443E+00  0.47600E-01  0.00000E+00  0.14383E+00  0.47462E-01  0.00000E+00  0.15326E+00  0.47324E-01  0.00000E+00  0.16271E+00
        0.47186E-01  0.00000E+00  0.17219E+00  0.47049E-01  0.00000E+00  0.18171E+00  0.46914E-01  0.00000E+00  0.19125E+00  0.46783E-01  0.00000E+00  0.20081E+00  0.46657E-01  0.00000E+00  0.21041E+00  0.46537E-01  0.00000E+00  0.22003E+00
        0.46426E-01  0.00000E+00  0.22969E+00  0.46325E-01  0.00000E+00  0.23935E+00  0.46240E-01  0.00000E+00  0.24906E+00  0.46170E-01  0.00000E+00  0.25874E+00  0.46126E-01  0.00000E+00  0.26854E+00  0.46106E-01  0.00000E+00  0.27811E+00
        0.59809E-01  0.00000E+00  0.47022E-02  0.59793E-01  0.00000E+00  0.14160E-01  0.59771E-01  0.00000E+00  0.23265E-01  0.59740E-01  0.00000E+00  0.32476E-01  0.59690E-01  0.00000E+00  0.41669E-01  0.59619E-01  0.00000E+00  0.50863E-01
        0.59528E-01  0.00000E+00  0.60072E-01  0.59422E-01  0.00000E+00  0.69292E-01  0.59301E-01  0.00000E+00  0.78528E-01  0.59169E-01  0.00000E+00  0.87782E-01  0.59028E-01  0.00000E+00  0.97055E-01  0.58879E-01  0.00000E+00  0.10635E+00
        0.58724E-01  0.00000E+00  0.11567E+00  0.58564E-01  0.00000E+00  0.12501E+00  0.58400E-01  0.00000E+00  0.13438E+00  0.58233E-01  0.00000E+00  0.14377E+00  0.58064E-01  0.00000E+00  0.15319E+00  0.57895E-01  0.00000E+00  0.16264E+00
        0.57726E-01  0.00000E+00  0.17212E+00  0.57558E-01  0.00000E+00  0.18163E+00  0.57393E-01  0.00000E+00  0.19116E+00  0.57232E-01  0.00000E+00  0.20072E+00  0.57078E-01  0.00000E+00  0.21032E+00  0.56931E-01  0.00000E+00  0.21993E+00
        0.56795E-01  0.00000E+00  0.22958E+00  0.56673E-01  0.00000E+00  0.23924E+00  0.56568E-01  0.00000E+00  0.24894E+00  0.56484E-01  0.00000E+00  0.25861E+00  0.56423E-01  0.00000E+00  0.26839E+00  0.56388E-01  0.00000E+00  0.27797E+00
        0.70619E-01  0.00000E+00  0.46954E-02  0.70656E-01  0.00000E+00  0.14146E-01  0.70655E-01  0.00000E+00  0.23246E-01  0.70626E-01  0.00000E+00  0.32451E-01  0.70572E-01  0.00000E+00  0.41638E-01  0.70492E-01  0.00000E+00  0.50825E-01
        0.70389E-01  0.00000E+00  0.60027E-01  0.70265E-01  0.00000E+00  0.69240E-01  0.70126E-01  0.00000E+00  0.78469E-01  0.69972E-01  0.00000E+00  0.87717E-01  0.69807E-01  0.00000E+00  0.96984E-01  0.69632E-01  0.00000E+00  0.10627E+00
        0.69450E-01  0.00000E+00  0.11558E+00  0.69261E-01  0.00000E+00  0.12492E+00  0.69068E-01  0.00000E+00  0.13428E+00  0.68871E-01  0.00000E+00  0.14367E+00  0.68671E-01  0.00000E+00  0.15309E+00  0.68470E-01  0.00000E+00  0.16253E+00
        0.68269E-01  0.00000E+00  0.17200E+00  0.68069E-01  0.00000E+00  0.18150E+00  0.67872E-01  0.00000E+00  0.19103E+00  0.67679E-01  0.00000E+00  0.20059E+00  0.67494E-01  0.00000E+00  0.21018E+00  0.67317E-01  0.00000E+00  0.21979E+00
        0.67153E-01  0.00000E+00  0.22943E+00  0.67004E-01  0.00000E+00  0.23908E+00  0.66876E-01  0.00000E+00  0.24879E+00  0.66772E-01  0.00000E+00  0.25845E+00  0.66701E-01  0.00000E+00  0.26824E+00  0.66665E-01  0.00000E+00  0.27780E+00
        0.81448E-01  0.00000E+00  0.46880E-02  0.81527E-01  0.00000E+00  0.14129E-01  0.81547E-01  0.00000E+00  0.23220E-01  0.81521E-01  0.00000E+00  0.32415E-01  0.81464E-01  0.00000E+00  0.41592E-01  0.81375E-01  0.00000E+00  0.50769E-01
        0.81258E-01  0.00000E+00  0.59961E-01  0.81118E-01  0.00000E+00  0.69165E-01  0.80959E-01  0.00000E+00  0.78385E-01  0.80783E-01  0.00000E+00  0.87624E-01  0.80594E-01  0.00000E+00  0.96883E-01  0.80393E-01  0.00000E+00  0.10616E+00
        0.80184E-01  0.00000E+00  0.11547E+00  0.79966E-01  0.00000E+00  0.12480E+00  0.79743E-01  0.00000E+00  0.13415E+00  0.79515E-01  0.00000E+00  0.14353E+00  0.79285E-01  0.00000E+00  0.15294E+00  0.79052E-01  0.00000E+00  0.16238E+00
        0.78819E-01  0.00000E+00  0.17184E+00  0.78587E-01  0.00000E+00  0.18134E+00  0.78358E-01  0.00000E+00  0.19086E+00  0.78135E-01  0.00000E+00  0.20042E+00  0.77919E-01  0.00000E+00  0.21000E+00  0.77714E-01  0.00000E+00  0.21960E+00
        0.77523E-01  0.00000E+00  0.22924E+00  0.77351E-01  0.00000E+00  0.23889E+00  0.77203E-01  0.00000E+00  0.24859E+00  0.77083E-01  0.00000E+00  0.25825E+00  0.76999E-01  0.00000E+00  0.26803E+00  0.76953E-01  0.00000E+00  0.27759E+00
[...]
<PointData>
      <DataArray type="Float32" Name="Velocity vectors"  NumberOfComponents="3"  format="ascii" >
          0.85154E-02  0.00000E+00 -0.63550E-02  0.43719E-02  0.00000E+00 -0.12786E-01  0.34098E-02  0.00000E+00 -0.19797E-01  0.38789E-02  0.00000E+00 -0.26874E-01  0.37629E-02  0.00000E+00 -0.34076E-01  0.37401E-02  0.00000E+00 -0.41245E-01
          0.36427E-02  0.00000E+00 -0.48359E-01  0.35196E-02  0.00000E+00 -0.55345E-01  0.33804E-02  0.00000E+00 -0.62183E-01  0.32270E-02  0.00000E+00 -0.68848E-01  0.30654E-02  0.00000E+00 -0.75326E-01  0.29010E-02  0.00000E+00 -0.81607E-01
          0.27352E-02  0.00000E+00 -0.87686E-01  0.25715E-02  0.00000E+00 -0.93557E-01  0.24112E-02  0.00000E+00 -0.99222E-01  0.22574E-02  0.00000E+00 -0.10468E+00  0.21094E-02  0.00000E+00 -0.10992E+00  0.19672E-02  0.00000E+00 -0.11496E+00
          0.18324E-02  0.00000E+00 -0.11977E+00  0.17145E-02  0.00000E+00 -0.12439E+00  0.16149E-02  0.00000E+00 -0.12881E+00  0.15272E-02  0.00000E+00 -0.13308E+00  0.14543E-02  0.00000E+00 -0.13719E+00  0.13877E-02  0.00000E+00 -0.14115E+00
          0.13438E-02  0.00000E+00 -0.14496E+00  0.13016E-02  0.00000E+00 -0.14865E+00  0.12879E-02  0.00000E+00 -0.15218E+00  0.12293E-02  0.00000E+00 -0.15570E+00  0.13163E-02  0.00000E+00 -0.15853E+00  0.36284E-03  0.00000E+00 -0.16321E+00
          0.16568E-01  0.00000E+00 -0.27680E-02  0.11907E-01  0.00000E+00 -0.89522E-02  0.11032E-01  0.00000E+00 -0.16784E-01  0.11449E-01  0.00000E+00 -0.24764E-01  0.11158E-01  0.00000E+00 -0.32324E-01  0.10967E-01  0.00000E+00 -0.39804E-01
          0.10650E-01  0.00000E+00 -0.47111E-01  0.10295E-01  0.00000E+00 -0.54220E-01  0.99073E-02  0.00000E+00 -0.61155E-01  0.94942E-02  0.00000E+00 -0.67905E-01  0.90664E-02  0.00000E+00 -0.74462E-01  0.86303E-02  0.00000E+00 -0.80832E-01
          0.81915E-02  0.00000E+00 -0.87008E-01  0.77557E-02  0.00000E+00 -0.92985E-01  0.73266E-02  0.00000E+00 -0.98770E-01  0.69073E-02  0.00000E+00 -0.10435E+00  0.64988E-02  0.00000E+00 -0.10974E+00  0.61090E-02  0.00000E+00 -0.11492E+00
          0.57439E-02  0.00000E+00 -0.11991E+00  0.54130E-02  0.00000E+00 -0.12471E+00  0.51302E-02  0.00000E+00 -0.12933E+00  0.49056E-02  0.00000E+00 -0.13378E+00  0.47032E-02  0.00000E+00 -0.13805E+00  0.45291E-02  0.00000E+00 -0.14218E+00
          0.43908E-02  0.00000E+00 -0.14611E+00  0.42765E-02  0.00000E+00 -0.14997E+00  0.42224E-02  0.00000E+00 -0.15354E+00  0.41185E-02  0.00000E+00 -0.15732E+00  0.40791E-02  0.00000E+00 -0.16017E+00  0.37327E-02  0.00000E+00 -0.16539E+00
          0.24464E-01  0.00000E+00 -0.28234E-02  0.20947E-01  0.00000E+00 -0.84958E-02  0.20203E-01  0.00000E+00 -0.16107E-01  0.20204E-01  0.00000E+00 -0.23738E-01  0.19819E-01  0.00000E+00 -0.31020E-01  0.19359E-01  0.00000E+00 -0.38330E-01
          0.18796E-01  0.00000E+00 -0.45539E-01  0.18167E-01  0.00000E+00 -0.52586E-01  0.17492E-01  0.00000E+00 -0.59493E-01  0.16784E-01  0.00000E+00 -0.66237E-01  0.16056E-01  0.00000E+00 -0.72801E-01  0.15317E-01  0.00000E+00 -0.79193E-01
          0.14577E-01  0.00000E+00 -0.85402E-01  0.13843E-01  0.00000E+00 -0.91426E-01  0.13122E-01  0.00000E+00 -0.97268E-01  0.12421E-01  0.00000E+00 -0.10292E+00  0.11746E-01  0.00000E+00 -0.10839E+00  0.11102E-01  0.00000E+00 -0.11367E+00
          0.10500E-01  0.00000E+00 -0.11878E+00  0.99521E-02  0.00000E+00 -0.12370E+00  0.94629E-02  0.00000E+00 -0.12845E+00  0.90284E-02  0.00000E+00 -0.13302E+00  0.86422E-02  0.00000E+00 -0.13739E+00  0.83143E-02  0.00000E+00 -0.14161E+00
          0.80307E-02  0.00000E+00 -0.14562E+00  0.78205E-02  0.00000E+00 -0.14959E+00  0.76363E-02  0.00000E+00 -0.15319E+00  0.75171E-02  0.00000E+00 -0.15712E+00  0.74026E-02  0.00000E+00 -0.15992E+00  0.74152E-02  0.00000E+00 -0.16543E+00
          0.32050E-01  0.00000E+00 -0.26889E-02  0.29645E-01  0.00000E+00 -0.83885E-02  0.28950E-01  0.00000E+00 -0.15865E-01  0.28772E-01  0.00000E+00 -0.23361E-01  0.28294E-01  0.00000E+00 -0.30549E-01  0.27680E-01  0.00000E+00 -0.37751E-01
          0.26924E-01  0.00000E+00 -0.44872E-01  0.26065E-01  0.00000E+00 -0.51838E-01  0.25135E-01  0.00000E+00 -0.58689E-01  0.24156E-01  0.00000E+00 -0.65390E-01  0.23144E-01  0.00000E+00 -0.71927E-01  0.22115E-01  0.00000E+00 -0.78307E-01
          0.21083E-01  0.00000E+00 -0.84513E-01  0.20056E-01  0.00000E+00 -0.90546E-01  0.19045E-01  0.00000E+00 -0.96406E-01  0.18059E-01  0.00000E+00 -0.10208E+00  0.17107E-01  0.00000E+00 -0.10759E+00  0.16201E-01  0.00000E+00 -0.11291E+00
          0.15351E-01  0.00000E+00 -0.11807E+00  0.14567E-01  0.00000E+00 -0.12304E+00  0.13859E-01  0.00000E+00 -0.12784E+00  0.13234E-01  0.00000E+00 -0.13246E+00  0.12683E-01  0.00000E+00 -0.13690E+00  0.12218E-01  0.00000E+00 -0.14120E+00
          0.11830E-01  0.00000E+00 -0.14529E+00  0.11540E-01  0.00000E+00 -0.14935E+00  0.11322E-01  0.00000E+00 -0.15305E+00  0.11199E-01  0.00000E+00 -0.15711E+00  0.11151E-01  0.00000E+00 -0.16007E+00  0.11129E-01  0.00000E+00 -0.16556E+00
          0.39784E-01  0.00000E+00 -0.27792E-02  0.38288E-01  0.00000E+00 -0.84243E-02  0.37680E-01  0.00000E+00 -0.15839E-01  0.37345E-01  0.00000E+00 -0.23300E-01  0.36759E-01  0.00000E+00 -0.30467E-01  0.35989E-01  0.00000E+00 -0.37631E-01
          0.35041E-01  0.00000E+00 -0.44708E-01  0.33968E-01  0.00000E+00 -0.51630E-01  0.32802E-01  0.00000E+00 -0.58440E-01  0.31571E-01  0.00000E+00 -0.65103E-01  0.30296E-01  0.00000E+00 -0.71611E-01  0.28997E-01  0.00000E+00 -0.77966E-01
          0.27691E-01  0.00000E+00 -0.84154E-01  0.26392E-01  0.00000E+00 -0.90176E-01  0.25112E-01  0.00000E+00 -0.96032E-01  0.23865E-01  0.00000E+00 -0.10171E+00  0.22662E-01  0.00000E+00 -0.10723E+00  0.21516E-01  0.00000E+00 -0.11257E+00
          0.20437E-01  0.00000E+00 -0.11774E+00  0.19436E-01  0.00000E+00 -0.12274E+00  0.18519E-01  0.00000E+00 -0.12757E+00  0.17693E-01  0.00000E+00 -0.13222E+00  0.16963E-01  0.00000E+00 -0.13670E+00  0.16334E-01  0.00000E+00 -0.14103E+00
          0.15815E-01  0.00000E+00 -0.14517E+00  0.15397E-01  0.00000E+00 -0.14927E+00  0.15097E-01  0.00000E+00 -0.15301E+00  0.14881E-01  0.00000E+00 -0.15711E+00  0.14803E-01  0.00000E+00 -0.16006E+00  0.14789E-01  0.00000E+00 -0.16570E+00
          0.47560E-01  0.00000E+00 -0.28330E-02  0.46787E-01  0.00000E+00 -0.85080E-02  0.46281E-01  0.00000E+00 -0.15909E-01  0.45835E-01  0.00000E+00 -0.23375E-01  0.45140E-01  0.00000E+00 -0.30557E-01  0.44217E-01  0.00000E+00 -0.37731E-01
          0.43088E-01  0.00000E+00 -0.44815E-01  0.41808E-01  0.00000E+00 -0.51739E-01  0.40414E-01  0.00000E+00 -0.58547E-01  0.38939E-01  0.00000E+00 -0.65203E-01  0.37410E-01  0.00000E+00 -0.71701E-01  0.35850E-01  0.00000E+00 -0.78045E-01
          0.34278E-01  0.00000E+00 -0.84222E-01  0.32711E-01  0.00000E+00 -0.90234E-01  0.31165E-01  0.00000E+00 -0.96080E-01  0.29654E-01  0.00000E+00 -0.10175E+00  0.28193E-01  0.00000E+00 -0.10726E+00  0.26796E-01  0.00000E+00 -0.11259E+00
          0.25473E-01  0.00000E+00 -0.11776E+00  0.24241E-01  0.00000E+00 -0.12275E+00  0.23108E-01  0.00000E+00 -0.12758E+00  0.22086E-01  0.00000E+00 -0.13224E+00  0.21184E-01  0.00000E+00 -0.13673E+00  0.20407E-01  0.00000E+00 -0.14109E+00
          0.19769E-01  0.00000E+00 -0.14526E+00  0.19263E-01  0.00000E+00 -0.14941E+00  0.18903E-01  0.00000E+00 -0.15320E+00  0.18682E-01  0.00000E+00 -0.15737E+00  0.18607E-01  0.00000E+00 -0.16041E+00  0.18588E-01  0.00000E+00 -0.16611E+00
          0.55453E-01  0.00000E+00 -0.29014E-02  0.55254E-01  0.00000E+00 -0.86136E-02  0.54875E-01  0.00000E+00 -0.16043E-01  0.54346E-01  0.00000E+00 -0.23561E-01  0.53547E-01  0.00000E+00 -0.30794E-01  0.52468E-01  0.00000E+00 -0.38014E-01
          0.51155E-01  0.00000E+00 -0.45135E-01  0.49668E-01  0.00000E+00 -0.52086E-01  0.48048E-01  0.00000E+00 -0.58916E-01  0.46333E-01  0.00000E+00 -0.65586E-01  0.44555E-01  0.00000E+00 -0.72093E-01  0.42739E-01  0.00000E+00 -0.78440E-01
          0.40909E-01  0.00000E+00 -0.84617E-01  0.39084E-01  0.00000E+00 -0.90625E-01  0.37282E-01  0.00000E+00 -0.96463E-01  0.35522E-01  0.00000E+00 -0.10213E+00  0.33817E-01  0.00000E+00 -0.10763E+00  0.32185E-01  0.00000E+00 -0.11295E+00
          0.30639E-01  0.00000E+00 -0.11811E+00  0.29194E-01  0.00000E+00 -0.12310E+00  0.27862E-01  0.00000E+00 -0.12793E+00  0.26656E-01  0.00000E+00 -0.13259E+00  0.25588E-01  0.00000E+00 -0.13710E+00  0.24666E-01  0.00000E+00 -0.14148E+00
          0.23904E-01  0.00000E+00 -0.14567E+00  0.23294E-01  0.00000E+00 -0.14984E+00  0.22856E-01  0.00000E+00 -0.15367E+00  0.22559E-01  0.00000E+00 -0.15787E+00  0.22450E-01  0.00000E+00 -0.16091E+00  0.22405E-01  0.00000E+00 -0.16672E+00
          0.63456E-01  0.00000E+00 -0.29776E-02  0.63734E-01  0.00000E+00 -0.87472E-02  0.63509E-01  0.00000E+00 -0.16236E-01  0.62918E-01  0.00000E+00 -0.23832E-01  0.62013E-01  0.00000E+00 -0.31140E-01  0.60780E-01  0.00000E+00 -0.38431E-01
          0.59285E-01  0.00000E+00 -0.45613E-01  0.57593E-01  0.00000E+00 -0.52617E-01  0.55748E-01  0.00000E+00 -0.59493E-01  0.53797E-01  0.00000E+00 -0.66198E-01  0.51774E-01  0.00000E+00 -0.72734E-01  0.49707E-01  0.00000E+00 -0.79102E-01
          0.47624E-01  0.00000E+00 -0.85293E-01  0.45544E-01  0.00000E+00 -0.91310E-01  0.43489E-01  0.00000E+00 -0.97151E-01  0.41477E-01  0.00000E+00 -0.10282E+00  0.39526E-01  0.00000E+00 -0.10831E+00  0.37654E-01  0.00000E+00 -0.11363E+00
          0.35875E-01  0.00000E+00 -0.11878E+00  0.34207E-01  0.00000E+00 -0.12375E+00  0.32666E-01  0.00000E+00 -0.12858E+00  0.31268E-01  0.00000E+00 -0.13323E+00  0.30028E-01  0.00000E+00 -0.13774E+00  0.28953E-01  0.00000E+00 -0.14211E+00
          0.28063E-01  0.00000E+00 -0.14632E+00  0.27349E-01  0.00000E+00 -0.15051E+00  0.26836E-01  0.00000E+00 -0.15437E+00  0.26501E-01  0.00000E+00 -0.15862E+00  0.26378E-01  0.00000E+00 -0.16170E+00  0.26315E-01  0.00000E+00 -0.16759E+00
          0.71588E-01  0.00000E+00 -0.30564E-02  0.72272E-01  0.00000E+00 -0.89027E-02  0.72210E-01  0.00000E+00 -0.16479E-01  0.71575E-01  0.00000E+00 -0.24177E-01  0.70567E-01  0.00000E+00 -0.31580E-01  0.69177E-01  0.00000E+00 -0.38963E-01
          0.67495E-01  0.00000E+00 -0.46227E-01  0.65591E-01  0.00000E+00 -0.53301E-01  0.63519E-01  0.00000E+00 -0.60238E-01  0.61327E-01  0.00000E+00 -0.66992E-01  0.59055E-01  0.00000E+00 -0.73569E-01  0.56734E-01  0.00000E+00 -0.79969E-01
          0.54394E-01  0.00000E+00 -0.86182E-01  0.52058E-01  0.00000E+00 -0.92214E-01  0.49748E-01  0.00000E+00 -0.98064E-01  0.47486E-01  0.00000E+00 -0.10373E+00  0.45291E-01  0.00000E+00 -0.10922E+00  0.43182E-01  0.00000E+00 -0.11454E+00
          0.41177E-01  0.00000E+00 -0.11968E+00  0.39295E-01  0.00000E+00 -0.12465E+00  0.37555E-01  0.00000E+00 -0.12947E+00  0.35972E-01  0.00000E+00 -0.13412E+00  0.34566E-01  0.00000E+00 -0.13864E+00  0.33346E-01  0.00000E+00 -0.14301E+00
          0.32334E-01  0.00000E+00 -0.14724E+00  0.31519E-01  0.00000E+00 -0.15144E+00  0.30929E-01  0.00000E+00 -0.15533E+00  0.30527E-01  0.00000E+00 -0.15961E+00  0.30367E-01  0.00000E+00 -0.16271E+00  0.30277E-01  0.00000E+00 -0.16869E+00
          0.79849E-01  0.00000E+00 -0.31393E-02  0.80893E-01  0.00000E+00 -0.90753E-02  0.80998E-01  0.00000E+00 -0.16759E-01  0.80334E-01  0.00000E+00 -0.24575E-01  0.79227E-01  0.00000E+00 -0.32088E-01  0.77679E-01  0.00000E+00 -0.39578E-01
          0.75808E-01  0.00000E+00 -0.46941E-01  0.73693E-01  0.00000E+00 -0.54100E-01  0.71394E-01  0.00000E+00 -0.61112E-01  0.68964E-01  0.00000E+00 -0.67931E-01  0.66446E-01  0.00000E+00 -0.74562E-01  0.63875E-01  0.00000E+00 -0.81006E-01
          0.61284E-01  0.00000E+00 -0.87255E-01  0.58696E-01  0.00000E+00 -0.93315E-01  0.56137E-01  0.00000E+00 -0.99185E-01  0.53628E-01  0.00000E+00 -0.10487E+00  0.51190E-01  0.00000E+00 -0.11037E+00  0.48845E-01  0.00000E+00 -0.11568E+00
          0.46612E-01  0.00000E+00 -0.12083E+00  0.44513E-01  0.00000E+00 -0.12579E+00  0.42568E-01  0.00000E+00 -0.13061E+00  0.40795E-01  0.00000E+00 -0.13525E+00  0.39216E-01  0.00000E+00 -0.13977E+00  0.37842E-01  0.00000E+00 -0.14415E+00
          0.36696E-01  0.00000E+00 -0.14839E+00  0.35768E-01  0.00000E+00 -0.15260E+00  0.35091E-01  0.00000E+00 -0.15651E+00  0.34628E-01  0.00000E+00 -0.16082E+00  0.34437E-01  0.00000E+00 -0.16397E+00  0.34319E-01  0.00000E+00 -0.17003E+00
          0.88257E-01  0.00000E+00 -0.32258E-02  0.89644E-01  0.00000E+00 -0.92622E-02  0.89918E-01  0.00000E+00 -0.17071E-01  0.89236E-01  0.00000E+00 -0.25025E-01  0.88029E-01  0.00000E+00 -0.32665E-01  0.86323E-01  0.00000E+00 -0.40277E-01
          0.84258E-01  0.00000E+00 -0.47753E-01  0.81925E-01  0.00000E+00 -0.55010E-01  0.79391E-01  0.00000E+00 -0.62111E-01  0.76717E-01  0.00000E+00 -0.69004E-01  0.73948E-01  0.00000E+00 -0.75699E-01  0.71122E-01  0.00000E+00 -0.82197E-01
          0.68273E-01  0.00000E+00 -0.88489E-01  0.65428E-01  0.00000E+00 -0.94583E-01  0.62614E-01  0.00000E+00 -0.10048E+00  0.59854E-01  0.00000E+00 -0.10618E+00  0.57170E-01  0.00000E+00 -0.11169E+00  0.54587E-01  0.00000E+00 -0.11701E+00
          0.52125E-01  0.00000E+00 -0.12216E+00  0.49808E-01  0.00000E+00 -0.12713E+00  0.47658E-01  0.00000E+00 -0.13195E+00  0.45696E-01  0.00000E+00 -0.13659E+00  0.43945E-01  0.00000E+00 -0.14112E+00  0.42418E-01  0.00000E+00 -0.14549E+00
          0.41142E-01  0.00000E+00 -0.14976E+00  0.40106E-01  0.00000E+00 -0.15398E+00  0.39345E-01  0.00000E+00 -0.15793E+00  0.38814E-01  0.00000E+00 -0.16227E+00  0.38581E-01  0.00000E+00 -0.16545E+00  0.38427E-01  0.00000E+00 -0.17160E+00
          0.96817E-01  0.00000E+00 -0.33122E-02  0.98535E-01  0.00000E+00 -0.94600E-02  0.98975E-01  0.00000E+00 -0.17412E-01  0.98282E-01  0.00000E+00 -0.25516E-01  0.96978E-01  0.00000E+00 -0.33295E-01  0.95111E-01  0.00000E+00 -0.41038E-01
          0.92847E-01  0.00000E+00 -0.48639E-01  0.90292E-01  0.00000E+00 -0.56005E-01  0.87522E-01  0.00000E+00 -0.63205E-01  0.84602E-01  0.00000E+00 -0.70183E-01  0.81582E-01  0.00000E+00 -0.76952E-01  0.78502E-01  0.00000E+00 -0.83513E-01
          0.75399E-01  0.00000E+00 -0.89858E-01  0.72301E-01  0.00000E+00 -0.95997E-01  0.69236E-01  0.00000E+00 -0.10193E+00  0.66228E-01  0.00000E+00 -0.10766E+00  0.63303E-01  0.00000E+00 -0.11319E+00  0.60483E-01  0.00000E+00 -0.11853E+00
          0.57793E-01  0.00000E+00 -0.12369E+00  0.55257E-01  0.00000E+00 -0.12866E+00  0.52900E-01  0.00000E+00 -0.13349E+00  0.50746E-01  0.00000E+00 -0.13813E+00  0.48819E-01  0.00000E+00 -0.14268E+00  0.47133E-01  0.00000E+00 -0.14706E+00
          0.45717E-01  0.00000E+00 -0.15134E+00  0.44560E-01  0.00000E+00 -0.15558E+00  0.43701E-01  0.00000E+00 -0.15956E+00  0.43093E-01  0.00000E+00 -0.16394E+00  0.42814E-01  0.00000E+00 -0.16715E+00  0.42619E-01  0.00000E+00 -0.17342E+00
          0.10555E+00  0.00000E+00 -0.34010E-02  0.10761E+00  0.00000E+00 -0.96649E-02  0.10822E+00  0.00000E+00 -0.17772E-01  0.10752E+00  0.00000E+00 -0.26041E-01  0.10611E+00  0.00000E+00 -0.33974E-01  0.10408E+00  0.00000E+00 -0.41861E-01
          0.10161E+00  0.00000E+00 -0.49600E-01  0.98829E-01  0.00000E+00 -0.57085E-01  0.95815E-01  0.00000E+00 -0.64395E-01  0.92642E-01  0.00000E+00 -0.71468E-01  0.89365E-01  0.00000E+00 -0.78321E-01  0.86026E-01  0.00000E+00 -0.84953E-01
          0.82663E-01  0.00000E+00 -0.91359E-01  0.79306E-01  0.00000E+00 -0.97549E-01  0.75985E-01  0.00000E+00 -0.10352E+00  0.72726E-01  0.00000E+00 -0.10929E+00  0.69553E-01  0.00000E+00 -0.11484E+00  0.66493E-01  0.00000E+00 -0.12020E+00
          0.63571E-01  0.00000E+00 -0.12538E+00  0.60814E-01  0.00000E+00 -0.13037E+00  0.58247E-01  0.00000E+00 -0.13521E+00  0.55897E-01  0.00000E+00 -0.13986E+00  0.53790E-01  0.00000E+00 -0.14442E+00  0.51944E-01  0.00000E+00 -0.14881E+00
          0.50387E-01  0.00000E+00 -0.15313E+00  0.49111E-01  0.00000E+00 -0.15738E+00  0.48155E-01  0.00000E+00 -0.16141E+00  0.47469E-01  0.00000E+00 -0.16583E+00  0.47138E-01  0.00000E+00 -0.16909E+00  0.46894E-01  0.00000E+00 -0.17546E+00
          0.11445E+00  0.00000E+00 -0.34877E-02  0.11687E+00  0.00000E+00 -0.98759E-02  0.11765E+00  0.00000E+00 -0.18152E-01  0.11695E+00  0.00000E+00 -0.26598E-01  0.11545E+00  0.00000E+00 -0.34697E-01  0.11324E+00  0.00000E+00 -0.42737E-01
          0.11056E+00  0.00000E+00 -0.50624E-01  0.10754E+00  0.00000E+00 -0.58237E-01  0.10428E+00  0.00000E+00 -0.65664E-01  0.10085E+00  0.00000E+00 -0.72841E-01  0.97309E-01  0.00000E+00 -0.79785E-01  0.93709E-01  0.00000E+00 -0.86497E-01
          0.90086E-01  0.00000E+00 -0.92972E-01  0.86471E-01  0.00000E+00 -0.99222E-01  0.82895E-01  0.00000E+00 -0.10525E+00  0.79384E-01  0.00000E+00 -0.11105E+00  0.75966E-01  0.00000E+00 -0.11665E+00  0.72666E-01  0.00000E+00 -0.12204E+00
          0.69513E-01  0.00000E+00 -0.12724E+00  0.66533E-01  0.00000E+00 -0.13225E+00  0.63755E-01  0.00000E+00 -0.13711E+00  0.61207E-01  0.00000E+00 -0.14178E+00  0.58918E-01  0.00000E+00 -0.14637E+00  0.56905E-01  0.00000E+00 -0.15077E+00
          0.55201E-01  0.00000E+00 -0.15512E+00  0.53796E-01  0.00000E+00 -0.15940E+00  0.52732E-01  0.00000E+00 -0.16348E+00  0.51956E-01  0.00000E+00 -0.16794E+00  0.51566E-01  0.00000E+00 -0.17125E+00  0.51265E-01  0.00000E+00 -0.17775E+00
          0.12355E+00  0.00000E+00 -0.35737E-02  0.12637E+00  0.00000E+00 -0.10089E-01  0.12733E+00  0.00000E+00 -0.18546E-01  0.12661E+00  0.00000E+00 -0.27181E-01  0.12502E+00  0.00000E+00 -0.35458E-01  0.12263E+00  0.00000E+00 -0.43662E-01
          0.11973E+00  0.00000E+00 -0.51707E-01  0.11646E+00  0.00000E+00 -0.59458E-01  0.11294E+00  0.00000E+00 -0.67012E-01  0.10924E+00  0.00000E+00 -0.74300E-01  0.10543E+00  0.00000E+00 -0.81343E-01  0.10157E+00  0.00000E+00 -0.88143E-01
          0.97676E-01  0.00000E+00 -0.94695E-01  0.93798E-01  0.00000E+00 -0.10101E+00  0.89963E-01  0.00000E+00 -0.10709E+00  0.86197E-01  0.00000E+00 -0.11295E+00  0.82529E-01  0.00000E+00 -0.11859E+00  0.78986E-01  0.00000E+00 -0.12402E+00
          0.75597E-01  0.00000E+00 -0.12926E+00  0.72391E-01  0.00000E+00 -0.13430E+00  0.69398E-01  0.00000E+00 -0.13919E+00  0.66648E-01  0.00000E+00 -0.14388E+00  0.64171E-01  0.00000E+00 -0.14850E+00  0.61989E-01  0.00000E+00 -0.15293E+00
          0.60134E-01  0.00000E+00 -0.15733E+00  0.58599E-01  0.00000E+00 -0.16164E+00  0.57427E-01  0.00000E+00 -0.16577E+00  0.56559E-01  0.00000E+00 -0.17029E+00  0.56105E-01  0.00000E+00 -0.17365E+00  0.55739E-01  0.00000E+00 -0.18030E+00
          0.13285E+00  0.00000E+00 -0.36560E-02  0.13611E+00  0.00000E+00 -0.10304E-01  0.13726E+00  0.00000E+00 -0.18952E-01  0.13654E+00  0.00000E+00 -0.27788E-01  0.13484E+00  0.00000E+00 -0.36257E-01  0.13227E+00  0.00000E+00 -0.44633E-01
          0.12913E+00  0.00000E+00 -0.52846E-01  0.12560E+00  0.00000E+00 -0.60742E-01  0.12181E+00  0.00000E+00 -0.68430E-01  0.11783E+00  0.00000E+00 -0.75837E-01  0.11375E+00  0.00000E+00 -0.82987E-01  0.10961E+00  0.00000E+00 -0.89882E-01
          0.10545E+00  0.00000E+00 -0.96519E-01  0.10130E+00  0.00000E+00 -0.10291E+00  0.97207E-01  0.00000E+00 -0.10906E+00  0.93184E-01  0.00000E+00 -0.11498E+00  0.89264E-01  0.00000E+00 -0.12067E+00  0.85476E-01  0.00000E+00 -0.12615E+00
          0.81849E-01  0.00000E+00 -0.13143E+00  0.78415E-01  0.00000E+00 -0.13650E+00  0.75205E-01  0.00000E+00 -0.14144E+00  0.72250E-01  0.00000E+00 -0.14617E+00  0.69584E-01  0.00000E+00 -0.15083E+00  0.67229E-01  0.00000E+00 -0.15529E+00
          0.65218E-01  0.00000E+00 -0.15974E+00  0.63546E-01  0.00000E+00 -0.16409E+00  0.62257E-01  0.00000E+00 -0.16830E+00  0.61289E-01  0.00000E+00 -0.17287E+00  0.60763E-01  0.00000E+00 -0.17630E+00  0.60325E-01  0.00000E+00 -0.18309E+00
          0.14237E+00  0.00000E+00 -0.37343E-02  0.14613E+00  0.00000E+00 -0.10519E-01  0.14750E+00  0.00000E+00 -0.19368E-01  0.14677E+00  0.00000E+00 -0.28415E-01  0.14495E+00  0.00000E+00 -0.37088E-01  0.14218E+00  0.00000E+00 -0.45647E-01