<?xml version="1.0"?>
<VTKFile type="UnstructuredGrid" version="0.1" byte_order="LittleEndian" compressor="vtkZLibDataCompressor">
<UnstructuredGrid>
  <Piece NumberOfPoints="1800"        NumberOfCells="1"      >
    <Points>
      <DataArray type="Float32" NumberOfComponents="3" format="ascii" >
        0.50694E-02  0.00000E+00  0.48236E-02  0.50342E-02  0.00000E+00  0.14855E-01  0.50832E-02  0.00000E+00  0.24595E-01  0.50484E-02  0.00000E+00  0.34456E-01  0.50546E-02  0.00000E+00  0.44290E-01  0.50499E-02  0.00000E+00  0.54135E-01
        0.50472E-02  0.00000E+00  0.63984E-01  0.50446E-02  0.00000E+00  0.73836E-01  0.50415E-02  0.00000E+00  0.83694E-01  0.50389E-02  0.00000E+00  0.93556E-01  0.50360E-02  0.00000E+00  0.10342E+00  0.50332E-02  0.00000E+00  0.11330E+00
        0.50303E-02  0.00000E+00  0.12317E+00  0.50274E-02  0.00000E+00  0.13306E+00  0.50245E-02  0.00000E+00  0.14294E+00  0.50216E-02  0.00000E+00  0.15284E+00  0.50186E-02  0.00000E+00  0.16274E+00  0.50158E-02  0.00000E+00  0.17264E+00
        0.50131E-02  0.00000E+00  0.18256E+00  0.50104E-02  0.00000E+00  0.19247E+00  0.50078E-02  0.00000E+00  0.20240E+00  0.50053E-02  0.00000E+00  0.21233E+00  0.50032E-02  0.00000E+00  0.22227E+00  0.50012E-02  0.00000E+00  0.23221E+00
        0.50003E-02  0.00000E+00  0.24216E+00  0.49986E-02  0.00000E+00  0.25212E+00  0.50010E-02  0.00000E+00  0.26208E+00  0.49989E-02  0.00000E+00  0.27204E+00  0.50070E-02  0.00000E+00  0.28203E+00  0.50182E-02  0.00000E+00  0.29194E+00
        0.15394E-01  0.00000E+00  0.49071E-02  0.15273E-01  0.00000E+00  0.14839E-01  0.15287E-01  0.00000E+00  0.24578E-01  0.15282E-01  0.00000E+00  0.34467E-01  0.15276E-01  0.00000E+00  0.44292E-01  0.15271E-01  0.00000E+00  0.54135E-01
        0.15263E-01  0.00000E+00  0.63981E-01  0.15256E-01  0.00000E+00  0.73828E-01  0.15249E-01  0.00000E+00  0.83682E-01  0.15241E-01  0.00000E+00  0.93539E-01  0.15233E-01  0.00000E+00  0.10340E+00  0.15225E-01  0.00000E+00  0.11327E+00
        0.15216E-01  0.00000E+00  0.12314E+00  0.15208E-01  0.00000E+00  0.13302E+00  0.15199E-01  0.00000E+00  0.14291E+00  0.15189E-01  0.00000E+00  0.15280E+00  0.15180E-01  0.00000E+00  0.16269E+00  0.15170E-01  0.00000E+00  0.17259E+00
        0.15160E-01  0.00000E+00  0.18250E+00  0.15149E-01  0.00000E+00  0.19242E+00  0.15139E-01  0.00000E+00  0.20234E+00  0.15128E-01  0.00000E+00  0.21227E+00  0.15116E-01  0.00000E+00  0.22220E+00  0.15105E-01  0.00000E+00  0.23214E+00
        0.15094E-01  0.00000E+00  0.24209E+00  0.15081E-01  0.00000E+00  0.25205E+00  0.15072E-01  0.00000E+00  0.26201E+00  0.15058E-01  0.00000E+00  0.27197E+00  0.15055E-01  0.00000E+00  0.28195E+00  0.15045E-01  0.00000E+00  0.29194E+00
        0.25441E-01  0.00000E+00  0.49793E-02  0.25360E-01  0.00000E+00  0.14907E-01  0.25367E-01  0.00000E+00  0.24656E-01  0.25354E-01  0.00000E+00  0.34528E-01  0.25348E-01  0.00000E+00  0.44351E-01  0.25340E-01  0.00000E+00  0.54193E-01
        0.25329E-01  0.00000E+00  0.64037E-01  0.25319E-01  0.00000E+00  0.73882E-01  0.25308E-01  0.00000E+00  0.83734E-01  0.25296E-01  0.00000E+00  0.93588E-01  0.25284E-01  0.00000E+00  0.10345E+00  0.25271E-01  0.00000E+00  0.11331E+00
        0.25258E-01  0.00000E+00  0.12318E+00  0.25245E-01  0.00000E+00  0.13306E+00  0.25231E-01  0.00000E+00  0.14294E+00  0.25217E-01  0.00000E+00  0.15282E+00  0.25202E-01  0.00000E+00  0.16272E+00  0.25188E-01  0.00000E+00  0.17262E+00
        0.25173E-01  0.00000E+00  0.18252E+00  0.25157E-01  0.00000E+00  0.19243E+00  0.25142E-01  0.00000E+00  0.20235E+00  0.25127E-01  0.00000E+00  0.21228E+00  0.25111E-01  0.00000E+00  0.22222E+00  0.25097E-01  0.00000E+00  0.23216E+00
        0.25083E-01  0.00000E+00  0.24210E+00  0.25070E-01  0.00000E+00  0.25206E+00  0.25061E-01  0.00000E+00  0.26202E+00  0.25051E-01  0.00000E+00  0.27199E+00  0.25052E-01  0.00000E+00  0.28197E+00  0.25052E-01  0.00000E+00  0.29193E+00
        0.35589E-01  0.00000E+00  0.49270E-02  0.35577E-01  0.00000E+00  0.14902E-01  0.35569E-01  0.00000E+00  0.24656E-01  0.35562E-01  0.00000E+00  0.34539E-01  0.35554E-01  0.00000E+00  0.44365E-01  0.35544E-01  0.00000E+00  0.54208E-01
        0.35531E-01  0.00000E+00  0.64052E-01  0.35518E-01  0.00000E+00  0.73895E-01  0.35503E-01  0.00000E+00  0.83745E-01  0.35487E-01  0.00000E+00  0.93596E-01  0.35471E-01  0.00000E+00  0.10345E+00  0.35454E-01  0.00000E+00  0.11331E+00
        0.35436E-01  0.00000E+00  0.12318E+00  0.35417E-01  0.00000E+00  0.13305E+00  0.35398E-01  0.00000E+00  0.14293E+00  0.35377E-01  0.00000E+00  0.15282E+00  0.35357E-01  0.00000E+00  0.16270E+00  0.35335E-01  0.00000E+00  0.17260E+00
        0.35313E-01  0.00000E+00  0.18250E+00  0.35291E-01  0.00000E+00  0.19241E+00  0.35268E-01  0.00000E+00  0.20233E+00  0.35245E-01  0.00000E+00  0.21226E+00  0.35221E-01  0.00000E+00  0.22219E+00  0.35197E-01  0.00000E+00  0.23212E+00
        0.35174E-01  0.00000E+00  0.24207E+00  0.35150E-01  0.00000E+00  0.25202E+00  0.35129E-01  0.00000E+00  0.26199E+00  0.35109E-01  0.00000E+00  0.27195E+00  0.35093E-01  0.00000E+00  0.28193E+00  0.35081E-01  0.00000E+00  0.29190E+00
        0.45713E-01  0.00000E+00  0.49373E-02  0.45713E-01  0.00000E+00  0.14900E-01  0.45710E-01  0.00000E+00  0.24657E-01  0.45705E-01  0.00000E+00  0.34540E-01  0.45697E-01  0.00000E+00  0.44366E-01  0.45685E-01  0.00000E+00  0.54209E-01
        0.45670E-01  0.00000E+00  0.64053E-01  0.45653E-01  0.00000E+00  0.73895E-01  0.45634E-01  0.00000E+00  0.83744E-01  0.45614E-01  0.00000E+00  0.93593E-01  0.45592E-01  0.00000E+00  0.10345E+00  0.45569E-01  0.00000E+00  0.11331E+00
        0.45545E-01  0.00000E+00  0.12317E+00  0.45520E-01  0.00000E+00  0.13304E+00  0.45494E-01  0.00000E+00  0.14292E+00  0.45467E-01  0.00000E+00  0.15280E+00  0.45439E-01  0.00000E+00  0.16269E+00  0.45410E-01  0.00000E+00  0.17258E+00
        0.45381E-01  0.00000E+00  0.18248E+00  0.45351E-01  0.00000E+00  0.19239E+00  0.45320E-01  0.00000E+00  0.20231E+00  0.45289E-01  0.00000E+00  0.21223E+00  0.45258E-01  0.00000E+00  0.22216E+00  0.45226E-01  0.00000E+00  0.23210E+00
        0.45196E-01  0.00000E+00  0.24205E+00  0.45167E-01  0.00000E+00  0.25200E+00  0.45141E-01  0.00000E+00  0.26196E+00  0.45119E-01  0.00000E+00  0.27193E+00  0.45105E-01  0.00000E+00  0.28191E+00  0.45099E-01  0.00000E+00  0.29187E+00
        0.55848E-01  0.00000E+00  0.49321E-02  0.55866E-01  0.00000E+00  0.14897E-01  0.55871E-01  0.00000E+00  0.24656E-01  0.55868E-01  0.00000E+00  0.34537E-01  0.55861E-01  0.00000E+00  0.44363E-01  0.55849E-01  0.00000E+00  0.54204E-01
        0.55833E-01  0.00000E+00  0.64046E-01  0.55814E-01  0.00000E+00  0.73887E-01  0.55792E-01  0.00000E+00  0.83734E-01  0.55769E-01  0.00000E+00  0.93582E-01  0.55743E-01  0.00000E+00  0.10344E+00  0.55716E-01  0.00000E+00  0.11329E+00
        0.55688E-01  0.00000E+00  0.12316E+00  0.55658E-01  0.00000E+00  0.13302E+00  0.55627E-01  0.00000E+00  0.14290E+00  0.55594E-01  0.00000E+00  0.15278E+00  0.55560E-01  0.00000E+00  0.16266E+00  0.55526E-01  0.00000E+00  0.17256E+00
        0.55490E-01  0.00000E+00  0.18246E+00  0.55453E-01  0.00000E+00  0.19236E+00  0.55416E-01  0.00000E+00  0.20228E+00  0.55378E-01  0.00000E+00  0.21220E+00  0.55340E-01  0.00000E+00  0.22213E+00  0.55302E-01  0.00000E+00  0.23206E+00
        0.55264E-01  0.00000E+00  0.24201E+00  0.55227E-01  0.00000E+00  0.25196E+00  0.55193E-01  0.00000E+00  0.26192E+00  0.55163E-01  0.00000E+00  0.27188E+00  0.55138E-01  0.00000E+00  0.28186E+00  0.55124E-01  0.00000E+00  0.29183E+00
        0.65987E-01  0.00000E+00  0.49303E-02  0.66017E-01  0.00000E+00  0.14892E-01  0.66029E-01  0.00000E+00  0.24648E-01  0.66029E-01  0.00000E+00  0.34528E-01  0.66023E-01  0.00000E+00  0.44352E-01  0.66010E-01  0.00000E+00  0.54191E-01
        0.65993E-01  0.00000E+00  0.64031E-01  0.65971E-01  0.00000E+00  0.73870E-01  0.65946E-01  0.00000E+00  0.83715E-01  0.65918E-01  0.00000E+00  0.93561E-01  0.65888E-01  0.00000E+00  0.10341E+00  0.65856E-01  0.00000E+00  0.11327E+00
        0.65822E-01  0.00000E+00  0.12313E+00  0.65786E-01  0.00000E+00  0.13299E+00  0.65748E-01  0.00000E+00  0.14287E+00  0.65708E-01  0.00000E+00  0.15274E+00  0.65668E-01  0.00000E+00  0.16263E+00  0.65625E-01  0.00000E+00  0.17252E+00
        0.65582E-01  0.00000E+00  0.18242E+00  0.65537E-01  0.00000E+00  0.19232E+00  0.65491E-01  0.00000E+00  0.20224E+00  0.65445E-01  0.00000E+00  0.21216E+00  0.65398E-01  0.00000E+00  0.22209E+00  0.65351E-01  0.00000E+00  0.23202E+00
        0.65305E-01  0.00000E+00  0.24197E+00  0.65261E-01  0.00000E+00  0.25192E+00  0.65220E-01  0.00000E+00  0.26188E+00  0.65184E-01  0.00000E+00  0.27184E+00  0.65158E-01  0.00000E+00  0.28182E+00  0.65145E-01  0.00000E+00  0.29178E+00
        0.76130E-01  0.00000E+00  0.49282E-02  0.76169E-01  0.00000E+00  0.14887E-01  0.76187E-01  0.00000E+00  0.24641E-01  0.76190E-01  0.00000E+00  0.34518E-01  0.76185E-01  0.00000E+00  0.44339E-01  0.76172E-01  0.00000E+00  0.54176E-01
        0.76153E-01  0.00000E+00  0.64013E-01  0.76129E-01  0.00000E+00  0.73849E-01  0.76101E-01  0.00000E+00  0.83692E-01  0.76070E-01  0.00000E+00  0.93535E-01  0.76036E-01  0.00000E+00  0.10338E+00  0.75999E-01  0.00000E+00  0.11324E+00
        0.75960E-01  0.00000E+00  0.12310E+00  0.75918E-01  0.00000E+00  0.13296E+00  0.75875E-01  0.00000E+00  0.14283E+00  0.75829E-01  0.00000E+00  0.15271E+00  0.75782E-01  0.00000E+00  0.16259E+00  0.75733E-01  0.00000E+00  0.17248E+00
        0.75683E-01  0.00000E+00  0.18237E+00  0.75631E-01  0.00000E+00  0.19228E+00  0.75579E-01  0.00000E+00  0.20219E+00  0.75525E-01  0.00000E+00  0.21211E+00  0.75471E-01  0.00000E+00  0.22203E+00  0.75417E-01  0.00000E+00  0.23197E+00
        0.75364E-01  0.00000E+00  0.24191E+00  0.75312E-01  0.00000E+00  0.25186E+00  0.75264E-01  0.00000E+00  0.26182E+00  0.75222E-01  0.00000E+00  0.27178E+00  0.75189E-01  0.00000E+00  0.28176E+00  0.75170E-01  0.00000E+00  0.29173E+00
[...]
<PointData>
      <DataArray type="Float32" Name="Velocity vectors"  NumberOfComponents="3"  format="ascii" >
          0.39800E-02  0.00000E+00 -0.20200E-02  0.26395E-02  0.00000E+00 -0.41006E-02  0.25608E-02  0.00000E+00 -0.67530E-02  0.26820E-02  0.00000E+00 -0.93053E-02  0.27359E-02  0.00000E+00 -0.12157E-01  0.27054E-02  0.00000E+00 -0.14802E-01
          0.26985E-02  0.00000E+00 -0.17559E-01  0.26387E-02  0.00000E+00 -0.20137E-01  0.25875E-02  0.00000E+00 -0.22717E-01  0.25137E-02  0.00000E+00 -0.25178E-01  0.24284E-02  0.00000E+00 -0.27587E-01  0.23328E-02  0.00000E+00 -0.29911E-01
          0.22261E-02  0.00000E+00 -0.32181E-01  0.21069E-02  0.00000E+00 -0.34373E-01  0.19843E-02  0.00000E+00 -0.36512E-01  0.18509E-02  0.00000E+00 -0.38574E-01  0.17172E-02  0.00000E+00 -0.40569E-01  0.15774E-02  0.00000E+00 -0.42476E-01
          0.14392E-02  0.00000E+00 -0.44289E-01  0.12978E-02  0.00000E+00 -0.46000E-01  0.11632E-02  0.00000E+00 -0.47590E-01  0.10237E-02  0.00000E+00 -0.49069E-01  0.89342E-03  0.00000E+00 -0.50405E-01  0.75790E-03  0.00000E+00 -0.51633E-01
          0.64184E-03  0.00000E+00 -0.52700E-01  0.51280E-03  0.00000E+00 -0.53708E-01  0.44315E-03  0.00000E+00 -0.54545E-01  0.32628E-03  0.00000E+00 -0.55462E-01  0.31638E-03  0.00000E+00 -0.56072E-01  0.56967E-03  0.00000E+00 -0.57361E-01
          0.79267E-02  0.00000E+00 -0.10931E-03  0.64641E-02  0.00000E+00 -0.25281E-02  0.64734E-02  0.00000E+00 -0.55698E-02  0.66389E-02  0.00000E+00 -0.84649E-02  0.66314E-02  0.00000E+00 -0.11136E-01  0.66392E-02  0.00000E+00 -0.13685E-01
          0.66011E-02  0.00000E+00 -0.16329E-01  0.65094E-02  0.00000E+00 -0.18771E-01  0.64050E-02  0.00000E+00 -0.21261E-01  0.62546E-02  0.00000E+00 -0.23618E-01  0.60884E-02  0.00000E+00 -0.25965E-01  0.58910E-02  0.00000E+00 -0.28214E-01
          0.56741E-02  0.00000E+00 -0.30451E-01  0.54334E-02  0.00000E+00 -0.32598E-01  0.51784E-02  0.00000E+00 -0.34727E-01  0.49057E-02  0.00000E+00 -0.36770E-01  0.46221E-02  0.00000E+00 -0.38768E-01  0.43278E-02  0.00000E+00 -0.40678E-01
          0.40284E-02  0.00000E+00 -0.42503E-01  0.37274E-02  0.00000E+00 -0.44235E-01  0.34270E-02  0.00000E+00 -0.45839E-01  0.31258E-02  0.00000E+00 -0.47347E-01  0.28358E-02  0.00000E+00 -0.48686E-01  0.25418E-02  0.00000E+00 -0.49951E-01
          0.22769E-02  0.00000E+00 -0.51001E-01  0.19891E-02  0.00000E+00 -0.52065E-01  0.17914E-02  0.00000E+00 -0.52816E-01  0.14964E-02  0.00000E+00 -0.53835E-01  0.13940E-02  0.00000E+00 -0.54286E-01  0.13389E-02  0.00000E+00 -0.55428E-01
          0.12034E-01  0.00000E+00  0.16771E-03  0.11218E-01  0.00000E+00 -0.17884E-02  0.11319E-01  0.00000E+00 -0.44849E-02  0.11401E-01  0.00000E+00 -0.71488E-02  0.11378E-01  0.00000E+00 -0.96949E-02  0.11305E-01  0.00000E+00 -0.12258E-01
          0.11196E-01  0.00000E+00 -0.14830E-01  0.11026E-01  0.00000E+00 -0.17223E-01  0.10809E-01  0.00000E+00 -0.19690E-01  0.10544E-01  0.00000E+00 -0.22016E-01  0.10234E-01  0.00000E+00 -0.24363E-01  0.98875E-02  0.00000E+00 -0.26608E-01
          0.94993E-02  0.00000E+00 -0.28863E-01  0.90827E-02  0.00000E+00 -0.31020E-01  0.86311E-02  0.00000E+00 -0.33175E-01  0.81571E-02  0.00000E+00 -0.35236E-01  0.76566E-02  0.00000E+00 -0.37260E-01  0.71393E-02  0.00000E+00 -0.39193E-01
          0.66059E-02  0.00000E+00 -0.41043E-01  0.60648E-02  0.00000E+00 -0.42800E-01  0.55169E-02  0.00000E+00 -0.44423E-01  0.49710E-02  0.00000E+00 -0.45956E-01  0.44272E-02  0.00000E+00 -0.47307E-01  0.38961E-02  0.00000E+00 -0.48597E-01
          0.33883E-02  0.00000E+00 -0.49643E-01  0.29054E-02  0.00000E+00 -0.50738E-01  0.24905E-02  0.00000E+00 -0.51444E-01  0.21020E-02  0.00000E+00 -0.52478E-01  0.19023E-02  0.00000E+00 -0.52750E-01  0.16481E-02  0.00000E+00 -0.54150E-01
          0.16293E-01  0.00000E+00  0.67847E-04  0.15924E-01  0.00000E+00 -0.16447E-02  0.16194E-01  0.00000E+00 -0.42717E-02  0.16332E-01  0.00000E+00 -0.67747E-02  0.16317E-01  0.00000E+00 -0.92189E-02  0.16195E-01  0.00000E+00 -0.11762E-01
          0.16032E-01  0.00000E+00 -0.14278E-01  0.15788E-01  0.00000E+00 -0.16697E-01  0.15477E-01  0.00000E+00 -0.19186E-01  0.15103E-01  0.00000E+00 -0.21544E-01  0.14671E-01  0.00000E+00 -0.23945E-01  0.14179E-01  0.00000E+00 -0.26244E-01
          0.13640E-01  0.00000E+00 -0.28561E-01  0.13053E-01  0.00000E+00 -0.30783E-01  0.12424E-01  0.00000E+00 -0.33002E-01  0.11762E-01  0.00000E+00 -0.35125E-01  0.11066E-01  0.00000E+00 -0.37210E-01  0.10350E-01  0.00000E+00 -0.39199E-01
          0.96135E-02  0.00000E+00 -0.41102E-01  0.88702E-02  0.00000E+00 -0.42908E-01  0.81197E-02  0.00000E+00 -0.44581E-01  0.73728E-02  0.00000E+00 -0.46156E-01  0.66357E-02  0.00000E+00 -0.47556E-01  0.59122E-02  0.00000E+00 -0.48884E-01
          0.52251E-02  0.00000E+00 -0.49983E-01  0.45612E-02  0.00000E+00 -0.51106E-01  0.39800E-02  0.00000E+00 -0.51900E-01  0.34018E-02  0.00000E+00 -0.52926E-01  0.30284E-02  0.00000E+00 -0.53463E-01  0.25281E-02  0.00000E+00 -0.54604E-01
          0.20653E-01  0.00000E+00  0.22787E-03  0.20901E-01  0.00000E+00 -0.15398E-02  0.21394E-01  0.00000E+00 -0.41736E-02  0.21532E-01  0.00000E+00 -0.66672E-02  0.21472E-01  0.00000E+00 -0.91421E-02  0.21307E-01  0.00000E+00 -0.11703E-01
          0.21060E-01  0.00000E+00 -0.14220E-01  0.20722E-01  0.00000E+00 -0.16695E-01  0.20290E-01  0.00000E+00 -0.19229E-01  0.19785E-01  0.00000E+00 -0.21641E-01  0.19201E-01  0.00000E+00 -0.24119E-01  0.18543E-01  0.00000E+00 -0.26485E-01
          0.17829E-01  0.00000E+00 -0.28876E-01  0.17048E-01  0.00000E+00 -0.31173E-01  0.16220E-01  0.00000E+00 -0.33458E-01  0.15345E-01  0.00000E+00 -0.35649E-01  0.14430E-01  0.00000E+00 -0.37791E-01  0.13488E-01  0.00000E+00 -0.39831E-01
          0.12518E-01  0.00000E+00 -0.41780E-01  0.11535E-01  0.00000E+00 -0.43620E-01  0.10541E-01  0.00000E+00 -0.45328E-01  0.95441E-02  0.00000E+00 -0.46923E-01  0.85580E-02  0.00000E+00 -0.48349E-01  0.75808E-02  0.00000E+00 -0.49679E-01
          0.66488E-02  0.00000E+00 -0.50798E-01  0.57481E-02  0.00000E+00 -0.51895E-01  0.49500E-02  0.00000E+00 -0.52711E-01  0.42161E-02  0.00000E+00 -0.53672E-01  0.36851E-02  0.00000E+00 -0.54160E-01  0.33218E-02  0.00000E+00 -0.55439E-01
          0.25465E-01  0.00000E+00  0.26039E-03  0.26259E-01  0.00000E+00 -0.14612E-02  0.26832E-01  0.00000E+00 -0.41465E-02  0.26911E-01  0.00000E+00 -0.66740E-02  0.26798E-01  0.00000E+00 -0.91629E-02  0.26543E-01  0.00000E+00 -0.11787E-01
          0.26183E-01  0.00000E+00 -0.14343E-01  0.25716E-01  0.00000E+00 -0.16896E-01  0.25139E-01  0.00000E+00 -0.19491E-01  0.24472E-01  0.00000E+00 -0.21975E-01  0.23708E-01  0.00000E+00 -0.24538E-01  0.22864E-01  0.00000E+00 -0.26975E-01
          0.21950E-01  0.00000E+00 -0.29447E-01  0.20963E-01  0.00000E+00 -0.31820E-01  0.19922E-01  0.00000E+00 -0.34171E-01  0.18829E-01  0.00000E+00 -0.36430E-01  0.17695E-01  0.00000E+00 -0.38627E-01  0.16531E-01  0.00000E+00 -0.40718E-01
          0.15340E-01  0.00000E+00 -0.42714E-01  0.14137E-01  0.00000E+00 -0.44589E-01  0.12927E-01  0.00000E+00 -0.46336E-01  0.11720E-01  0.00000E+00 -0.47956E-01  0.10531E-01  0.00000E+00 -0.49413E-01  0.93652E-02  0.00000E+00 -0.50767E-01
          0.82478E-02  0.00000E+00 -0.51914E-01  0.71923E-02  0.00000E+00 -0.53037E-01  0.62237E-02  0.00000E+00 -0.53888E-01  0.53716E-02  0.00000E+00 -0.54886E-01  0.46820E-02  0.00000E+00 -0.55480E-01  0.42223E-02  0.00000E+00 -0.56657E-01
          0.30342E-01  0.00000E+00  0.30091E-03  0.31612E-01  0.00000E+00 -0.14459E-02  0.32346E-01  0.00000E+00 -0.41974E-02  0.32421E-01  0.00000E+00 -0.67733E-02  0.32240E-01  0.00000E+00 -0.93341E-02  0.31890E-01  0.00000E+00 -0.12057E-01
          0.31419E-01  0.00000E+00 -0.14682E-01  0.30823E-01  0.00000E+00 -0.17328E-01  0.30103E-01  0.00000E+00 -0.20009E-01  0.29270E-01  0.00000E+00 -0.22586E-01  0.28335E-01  0.00000E+00 -0.25243E-01  0.27307E-01  0.00000E+00 -0.27765E-01
          0.26196E-01  0.00000E+00 -0.30328E-01  0.25008E-01  0.00000E+00 -0.32781E-01  0.23758E-01  0.00000E+00 -0.35204E-01  0.22451E-01  0.00000E+00 -0.37533E-01  0.21100E-01  0.00000E+00 -0.39785E-01  0.19714E-01  0.00000E+00 -0.41928E-01
          0.18300E-01  0.00000E+00 -0.43967E-01  0.16871E-01  0.00000E+00 -0.45875E-01  0.15431E-01  0.00000E+00 -0.47652E-01  0.13994E-01  0.00000E+00 -0.49293E-01  0.12568E-01  0.00000E+00 -0.50767E-01  0.11169E-01  0.00000E+00 -0.52133E-01
          0.98147E-02  0.00000E+00 -0.53286E-01  0.85324E-02  0.00000E+00 -0.54407E-01  0.73515E-02  0.00000E+00 -0.55254E-01  0.63133E-02  0.00000E+00 -0.56225E-01  0.55007E-02  0.00000E+00 -0.56778E-01  0.50319E-02  0.00000E+00 -0.58007E-01
          0.35497E-01  0.00000E+00  0.22767E-03  0.37285E-01  0.00000E+00 -0.15577E-02  0.38180E-01  0.00000E+00 -0.43845E-02  0.38196E-01  0.00000E+00 -0.70489E-02  0.37903E-01  0.00000E+00 -0.96825E-02  0.37427E-01  0.00000E+00 -0.12507E-01
          0.36810E-01  0.00000E+00 -0.15214E-01  0.36048E-01  0.00000E+00 -0.17964E-01  0.35144E-01  0.00000E+00 -0.20746E-01  0.34113E-01  0.00000E+00 -0.23419E-01  0.32972E-01  0.00000E+00 -0.26173E-01  0.31724E-01  0.00000E+00 -0.28786E-01
          0.30389E-01  0.00000E+00 -0.31435E-01  0.28972E-01  0.00000E+00 -0.33965E-01  0.27488E-01  0.00000E+00 -0.36456E-01  0.25947E-01  0.00000E+00 -0.38846E-01  0.24361E-01  0.00000E+00 -0.41146E-01  0.22740E-01  0.00000E+00 -0.43331E-01
          0.21093E-01  0.00000E+00 -0.45402E-01  0.19433E-01  0.00000E+00 -0.47336E-01  0.17768E-01  0.00000E+00 -0.49134E-01  0.16110E-01  0.00000E+00 -0.50791E-01  0.14471E-01  0.00000E+00 -0.52281E-01  0.12871E-01  0.00000E+00 -0.53659E-01
          0.11330E-01  0.00000E+00 -0.54828E-01  0.98774E-02  0.00000E+00 -0.55964E-01  0.85422E-02  0.00000E+00 -0.56828E-01  0.73793E-02  0.00000E+00 -0.57829E-01  0.64439E-02  0.00000E+00 -0.58426E-01  0.58866E-02  0.00000E+00 -0.59624E-01
          0.40604E-01  0.00000E+00  0.13309E-03  0.42819E-01  0.00000E+00 -0.17315E-02  0.43830E-01  0.00000E+00 -0.46662E-02  0.43812E-01  0.00000E+00 -0.74399E-02  0.43433E-01  0.00000E+00 -0.10167E-01  0.42853E-01  0.00000E+00 -0.13112E-01
          0.42105E-01  0.00000E+00 -0.15927E-01  0.41187E-01  0.00000E+00 -0.18796E-01  0.40117E-01  0.00000E+00 -0.21689E-01  0.38905E-01  0.00000E+00 -0.24470E-01  0.37571E-01  0.00000E+00 -0.27333E-01  0.36123E-01  0.00000E+00 -0.30046E-01
          0.34582E-01  0.00000E+00 -0.32784E-01  0.32955E-01  0.00000E+00 -0.35399E-01  0.31258E-01  0.00000E+00 -0.37961E-01  0.29503E-01  0.00000E+00 -0.40415E-01  0.27701E-01  0.00000E+00 -0.42767E-01  0.25865E-01  0.00000E+00 -0.44997E-01
          0.24002E-01  0.00000E+00 -0.47103E-01  0.22124E-01  0.00000E+00 -0.49065E-01  0.20240E-01  0.00000E+00 -0.50888E-01  0.18362E-01  0.00000E+00 -0.52563E-01  0.16503E-01  0.00000E+00 -0.54068E-01  0.14681E-01  0.00000E+00 -0.55457E-01
          0.12920E-01  0.00000E+00 -0.56631E-01  0.11256E-01  0.00000E+00 -0.57774E-01  0.97221E-02  0.00000E+00 -0.58635E-01  0.83818E-02  0.00000E+00 -0.59628E-01  0.73226E-02  0.00000E+00 -0.60201E-01  0.67157E-02  0.00000E+00 -0.61444E-01
          0.45710E-01  0.00000E+00 -0.44093E-04  0.48355E-01  0.00000E+00 -0.20196E-02  0.49507E-01  0.00000E+00 -0.50689E-02  0.49474E-01  0.00000E+00 -0.79848E-02  0.49010E-01  0.00000E+00 -0.10821E-01  0.48317E-01  0.00000E+00 -0.13898E-01
          0.47430E-01  0.00000E+00 -0.16843E-01  0.46353E-01  0.00000E+00 -0.19834E-01  0.45111E-01  0.00000E+00 -0.22849E-01  0.43704E-01  0.00000E+00 -0.25751E-01  0.42168E-01  0.00000E+00 -0.28722E-01  0.40510E-01  0.00000E+00 -0.31538E-01
          0.38751E-01  0.00000E+00 -0.34367E-01  0.36902E-01  0.00000E+00 -0.37065E-01  0.34981E-01  0.00000E+00 -0.39695E-01  0.32999E-01  0.00000E+00 -0.42208E-01  0.30968E-01  0.00000E+00 -0.44606E-01  0.28904E-01  0.00000E+00 -0.46874E-01
          0.26812E-01  0.00000E+00 -0.49009E-01  0.24708E-01  0.00000E+00 -0.50993E-01  0.22599E-01  0.00000E+00 -0.52833E-01  0.20500E-01  0.00000E+00 -0.54520E-01  0.18425E-01  0.00000E+00 -0.56036E-01  0.16396E-01  0.00000E+00 -0.57436E-01
          0.14439E-01  0.00000E+00 -0.58618E-01  0.12595E-01  0.00000E+00 -0.59772E-01  0.10902E-01  0.00000E+00 -0.60645E-01  0.94280E-02  0.00000E+00 -0.61664E-01  0.82550E-02  0.00000E+00 -0.62260E-01  0.75733E-02  0.00000E+00 -0.63508E-01
          0.50667E-01  0.00000E+00 -0.25471E-03  0.53672E-01  0.00000E+00 -0.23633E-02  0.54940E-01  0.00000E+00 -0.55522E-02  0.54895E-01  0.00000E+00 -0.86348E-02  0.54365E-01  0.00000E+00 -0.11602E-01  0.53580E-01  0.00000E+00 -0.14825E-01
          0.52579E-01  0.00000E+00 -0.17915E-01  0.51363E-01  0.00000E+00 -0.21038E-01  0.49964E-01  0.00000E+00 -0.24190E-01  0.48385E-01  0.00000E+00 -0.27220E-01  0.46669E-01  0.00000E+00 -0.30303E-01  0.44820E-01  0.00000E+00 -0.33232E-01
          0.42864E-01  0.00000E+00 -0.36154E-01  0.40816E-01  0.00000E+00 -0.38939E-01  0.38691E-01  0.00000E+00 -0.41641E-01  0.36503E-01  0.00000E+00 -0.44216E-01  0.34265E-01  0.00000E+00 -0.46665E-01  0.31991E-01  0.00000E+00 -0.48974E-01
          0.29689E-01  0.00000E+00 -0.51143E-01  0.27372E-01  0.00000E+00 -0.53154E-01  0.25048E-01  0.00000E+00 -0.55016E-01  0.22734E-01  0.00000E+00 -0.56721E-01  0.20442E-01  0.00000E+00 -0.58253E-01  0.18198E-01  0.00000E+00 -0.59665E-01
          0.16031E-01  0.00000E+00 -0.60859E-01  0.13984E-01  0.00000E+00 -0.62024E-01  0.12102E-01  0.00000E+00 -0.62898E-01  0.10464E-01  0.00000E+00 -0.63923E-01  0.91737E-02  0.00000E+00 -0.64508E-01  0.84368E-02  0.00000E+00 -0.65797E-01
          0.55472E-01  0.00000E+00 -0.48918E-03  0.58791E-01  0.00000E+00 -0.27630E-02  0.60180E-01  0.00000E+00 -0.61089E-02  0.60152E-01  0.00000E+00 -0.93862E-02  0.59588E-01  0.00000E+00 -0.12505E-01  0.58738E-01  0.00000E+00 -0.15885E-01
          0.57641E-01  0.00000E+00 -0.19142E-01  0.56301E-01  0.00000E+00 -0.22411E-01  0.54764E-01  0.00000E+00 -0.25708E-01  0.53030E-01  0.00000E+00 -0.28876E-01  0.51145E-01  0.00000E+00 -0.32078E-01  0.49117E-01  0.00000E+00 -0.35127E-01
          0.46974E-01  0.00000E+00 -0.38146E-01  0.44733E-01  0.00000E+00 -0.41021E-01  0.42407E-01  0.00000E+00 -0.43798E-01  0.40016E-01  0.00000E+00 -0.46435E-01  0.37569E-01  0.00000E+00 -0.48936E-01  0.35081E-01  0.00000E+00 -0.51286E-01
          0.32563E-01  0.00000E+00 -0.53488E-01  0.30027E-01  0.00000E+00 -0.55524E-01  0.27483E-01  0.00000E+00 -0.57408E-01  0.24947E-01  0.00000E+00 -0.59128E-01  0.22437E-01  0.00000E+00 -0.60674E-01  0.19980E-01  0.00000E+00 -0.62097E-01
          0.17608E-01  0.00000E+00 -0.63302E-01  0.15371E-01  0.00000E+00 -0.64479E-01  0.13321E-01  0.00000E+00 -0.65365E-01  0.11538E-01  0.00000E+00 -0.66413E-01  0.10132E-01  0.00000E+00 -0.67010E-01  0.93251E-02  0.00000E+00 -0.68330E-01
          0.60120E-01  0.00000E+00 -0.72850E-03  0.63692E-01  0.00000E+00 -0.31823E-02  0.65202E-01  0.00000E+00 -0.67107E-02  0.65209E-01  0.00000E+00 -0.10198E-01  0.64631E-01  0.00000E+00 -0.13489E-01  0.63728E-01  0.00000E+00 -0.17046E-01
          0.62554E-01  0.00000E+00 -0.20485E-01  0.61115E-01  0.00000E+00 -0.23911E-01  0.59459E-01  0.00000E+00 -0.27362E-01  0.57586E-01  0.00000E+00 -0.30680E-01  0.55551E-01  0.00000E+00 -0.34008E-01  0.53364E-01  0.00000E+00 -0.37184E-01
          0.51051E-01  0.00000E+00 -0.40305E-01  0.48633E-01  0.00000E+00 -0.43277E-01  0.46123E-01  0.00000E+00 -0.46134E-01  0.43542E-01  0.00000E+00 -0.48839E-01  0.40899E-01  0.00000E+00 -0.51398E-01  0.38210E-01  0.00000E+00 -0.53795E-01
          0.35486E-01  0.00000E+00 -0.56037E-01  0.32739E-01  0.00000E+00 -0.58106E-01  0.29981E-01  0.00000E+00 -0.60017E-01  0.27229E-01  0.00000E+00 -0.61762E-01  0.24500E-01  0.00000E+00 -0.63330E-01  0.21826E-01  0.00000E+00 -0.64770E-01
          0.19241E-01  0.00000E+00 -0.65992E-01  0.16801E-01  0.00000E+00 -0.67184E-01  0.14563E-01  0.00000E+00 -0.68077E-01  0.12619E-01  0.00000E+00 -0.69143E-01  0.11095E-01  0.00000E+00 -0.69737E-01  0.10230E-01  0.00000E+00 -0.71097E-01
          0.64661E-01  0.00000E+00 -0.94825E-03  0.68441E-01  0.00000E+00 -0.35998E-02  0.70069E-01  0.00000E+00 -0.73328E-02  0.70124E-01  0.00000E+00 -0.11051E-01  0.69557E-01  0.00000E+00 -0.14542E-01  0.68627E-01  0.00000E+00 -0.18290E-01
          0.67405E-01  0.00000E+00 -0.21924E-01  0.65887E-01  0.00000E+00 -0.25524E-01  0.64131E-01  0.00000E+00 -0.29142E-01  0.62143E-01  0.00000E+00 -0.32622E-01  0.59977E-01  0.00000E+00 -0.36084E-01  0.57647E-01  0.00000E+00 -0.39398E-01
          0.55179E-01  0.00000E+00 -0.42630E-01  0.52596E-01  0.00000E+00 -0.45706E-01  0.49912E-01  0.00000E+00 -0.48653E-01  0.47146E-01  0.00000E+00 -0.51433E-01  0.44311E-01  0.00000E+00 -0.54058E-01  0.41421E-01  0.00000E+00 -0.56508E-01
          0.38488E-01  0.00000E+00 -0.58795E-01  0.35525E-01  0.00000E+00 -0.60903E-01  0.32545E-01  0.00000E+00 -0.62844E-01  0.29568E-01  0.00000E+00 -0.64615E-01  0.26613E-01  0.00000E+00 -0.66207E-01  0.23715E-01  0.00000E+00 -0.67665E-01
          0.20914E-01  0.00000E+00 -0.68905E-01  0.18270E-01  0.00000E+00 -0.70113E-01  0.15848E-01  0.00000E+00 -0.71019E-01  0.13746E-01  0.00000E+00 -0.72108E-01  0.12099E-01  0.00000E+00 -0.72709E-01  0.11163E-01  0.00000E+00 -0.74116E-01
          0.69167E-01  0.00000E+00 -0.11382E-02  0.73107E-01  0.00000E+00 -0.40009E-02  0.74855E-01  0.00000E+00 -0.79681E-02  0.74973E-01  0.00000E+00 -0.11926E-01  0.74433E-01  0.00000E+00 -0.15635E-01  0.73490E-01  0.00000E+00 -0.19593E-01
          0.72227E-01  0.00000E+00 -0.23434E-01  0.70643E-01  0.00000E+00 -0.27226E-01  0.68800E-01  0.00000E+00 -0.31019E-01  0.66710E-01  0.00000E+00 -0.34672E-01  0.64424E-01  0.00000E+00 -0.38280E-01  0.61960E-01  0.00000E+00 -0.41741E-01
          0.59347E-01  0.00000E+00 -0.45094E-01  0.56608E-01  0.00000E+00 -0.48285E-01  0.53756E-01  0.00000E+00 -0.51329E-01  0.50813E-01  0.00000E+00 -0.54195E-01  0.47790E-01  0.00000E+00 -0.56895E-01  0.44702E-01  0.00000E+00 -0.59409E-01
          0.41563E-01  0.00000E+00 -0.61750E-01  0.38387E-01  0.00000E+00 -0.63906E-01  0.35187E-01  0.00000E+00 -0.65888E-01  0.31985E-01  0.00000E+00 -0.67695E-01  0.28801E-01  0.00000E+00 -0.69319E-01  0.25676E-01  0.00000E+00 -0.70803E-01
          0.22650E-01  0.00000E+00 -0.72069E-01  0.19792E-01  0.00000E+00 -0.73298E-01  0.17173E-01  0.00000E+00 -0.74220E-01  0.14901E-01  0.00000E+00 -0.75333E-01  0.13126E-01  0.00000E+00 -0.75937E-01  0.12121E-01  0.00000E+00 -0.77387E-01
          0.73740E-01  0.00000E+00 -0.12946E-02  0.77825E-01  0.00000E+00 -0.43730E-02  0.79695E-01  0.00000E+00 -0.85953E-02  0.79877E-01  0.00000E+00 -0.12805E-01  0.79370E-01  0.00000E+00 -0.16758E-01  0.78421E-01  0.00000E+00 -0.20946E-01
          0.77131E-01  0.00000E+00 -0.25003E-01  0.75494E-01  0.00000E+00 -0.29005E-01  0.73575E-01  0.00000E+00 -0.32984E-01  0.71392E-01  0.00000E+00 -0.36824E-01  0.68995E-01  0.00000E+00 -0.40591E-01  0.66407E-01  0.00000E+00 -0.44210E-01
          0.63656E-01  0.00000E+00 -0.47698E-01  0.60764E-01  0.00000E+00 -0.51015E-01  0.57748E-01  0.00000E+00 -0.54171E-01  0.54627E-01  0.00000E+00 -0.57135E-01  0.51414E-01  0.00000E+00 -0.59922E-01  0.48125E-01  0.00000E+00 -0.62511E-01
          0.44773E-01  0.00000E+00 -0.64917E-01  0.41375E-01  0.00000E+00 -0.67130E-01  0.37943E-01  0.00000E+00 -0.69161E-01  0.34504E-01  0.00000E+00 -0.71010E-01  0.31078E-01  0.00000E+00 -0.72671E-01  0.27714E-01  0.00000E+00 -0.74185E-01
          0.24453E-01  0.00000E+00 -0.75480E-01  0.21373E-01  0.00000E+00 -0.76732E-01  0.18550E-01  0.00000E+00 -0.77672E-01  0.16103E-01  0.00000E+00 -0.78811E-01  0.14193E-01  0.00000E+00 -0.79423E-01  0.13110E-01  0.00000E+00 -0.80926E-01
          0.78466E-01  0.00000E+00 -0.14147E-02  0.82682E-01  0.00000E+00 -0.47193E-02  0.84667E-01  0.00000E+00 -0.92229E-02  0.84912E-01  0.00000E+00 -0.13695E-01  0.84441E-01  0.00000E+00 -0.17904E-01  0.83490E-01  0.00000E+00 -0.22338E-01