<?xml version="1.0"?>
<VTKFile type="UnstructuredGrid" version="0.1" byte_order="LittleEndian" compressor="vtkZLibDataCompressor">
<UnstructuredGrid>
  <Piece NumberOfPoints="1800"        NumberOfCells="1"      >
    <Points>
      <DataArray type="Float32" NumberOfComponents="3" format="ascii" >
        0.44373E-01  0.00000E+00  0.24936E-02  0.29745E-01  0.00000E+00  0.38290E-02  0.14683E-01  0.00000E+00  0.40153E-02  0.21684E-01  0.00000E+00  0.98516E-02  0.67629E-02  0.00000E+00  0.94298E-02  0.98030E-02  0.00000E+00  0.16098E-01
        0.79896E-02  0.00000E+00  0.21573E-01  0.11720E-01  0.00000E+00  0.26862E-01  0.79588E-02  0.00000E+00  0.32485E-01  0.94279E-02  0.00000E+00  0.38913E-01  0.78896E-02  0.00000E+00  0.45077E-01  0.10512E-01  0.00000E+00  0.50780E-01
        0.88625E-02  0.00000E+00  0.56616E-01  0.11620E-01  0.00000E+00  0.62114E-01  0.10785E-01  0.00000E+00  0.67249E-01  0.12338E-01  0.00000E+00  0.72354E-01  0.12208E-01  0.00000E+00  0.77095E-01  0.12471E-01  0.00000E+00  0.81795E-01
        0.12306E-01  0.00000E+00  0.86421E-01  0.12129E-01  0.00000E+00  0.91085E-01  0.11776E-01  0.00000E+00  0.95739E-01  0.11452E-01  0.00000E+00  0.10049E+00  0.11152E-01  0.00000E+00  0.10536E+00  0.10763E-01  0.00000E+00  0.11021E+00
        0.10076E-01  0.00000E+00  0.11494E+00  0.94355E-02  0.00000E+00  0.11993E+00  0.96171E-02  0.00000E+00  0.12556E+00  0.93883E-02  0.00000E+00  0.13123E+00  0.71338E-02  0.00000E+00  0.13570E+00  0.73757E-02  0.00000E+00  0.13934E+00
        0.59233E-01  0.00000E+00  0.34365E-02  0.36866E-01  0.00000E+00  0.10350E-01  0.51856E-01  0.00000E+00  0.10557E-01  0.44248E-01  0.00000E+00  0.16283E-01  0.27171E-01  0.00000E+00  0.16070E-01  0.37105E-01  0.00000E+00  0.22174E-01
        0.22519E-01  0.00000E+00  0.22841E-01  0.33896E-01  0.00000E+00  0.29265E-01  0.22432E-01  0.00000E+00  0.31820E-01  0.33157E-01  0.00000E+00  0.37302E-01  0.21685E-01  0.00000E+00  0.40782E-01  0.32287E-01  0.00000E+00  0.45758E-01
        0.22159E-01  0.00000E+00  0.50099E-01  0.33223E-01  0.00000E+00  0.54360E-01  0.23488E-01  0.00000E+00  0.59619E-01  0.34381E-01  0.00000E+00  0.63615E-01  0.26075E-01  0.00000E+00  0.68918E-01  0.33656E-01  0.00000E+00  0.73313E-01
        0.29842E-01  0.00000E+00  0.78875E-01  0.31859E-01  0.00000E+00  0.84456E-01  0.30886E-01  0.00000E+00  0.89769E-01  0.30567E-01  0.00000E+00  0.95308E-01  0.29801E-01  0.00000E+00  0.10078E+00  0.29395E-01  0.00000E+00  0.10656E+00
        0.28304E-01  0.00000E+00  0.11225E+00  0.28717E-01  0.00000E+00  0.11724E+00  0.26325E-01  0.00000E+00  0.12314E+00  0.27233E-01  0.00000E+00  0.13023E+00  0.25129E-01  0.00000E+00  0.13389E+00  0.25490E-01  0.00000E+00  0.13804E+00
        0.76862E-01  0.00000E+00  0.33134E-02  0.67118E-01  0.00000E+00  0.93125E-02  0.84835E-01  0.00000E+00  0.99730E-02  0.74447E-01  0.00000E+00  0.15273E-01  0.58923E-01  0.00000E+00  0.17416E-01  0.67432E-01  0.00000E+00  0.22345E-01
        0.50425E-01  0.00000E+00  0.24349E-01  0.60284E-01  0.00000E+00  0.28774E-01  0.45782E-01  0.00000E+00  0.31871E-01  0.56943E-01  0.00000E+00  0.36485E-01  0.44660E-01  0.00000E+00  0.40354E-01  0.55853E-01  0.00000E+00  0.44870E-01
        0.44045E-01  0.00000E+00  0.48998E-01  0.55419E-01  0.00000E+00  0.53470E-01  0.44479E-01  0.00000E+00  0.58026E-01  0.55515E-01  0.00000E+00  0.62705E-01  0.45784E-01  0.00000E+00  0.67453E-01  0.54339E-01  0.00000E+00  0.72196E-01
        0.48301E-01  0.00000E+00  0.77169E-01  0.51493E-01  0.00000E+00  0.82899E-01  0.49384E-01  0.00000E+00  0.88240E-01  0.49485E-01  0.00000E+00  0.93890E-01  0.48007E-01  0.00000E+00  0.99390E-01  0.47869E-01  0.00000E+00  0.10526E+00
        0.46555E-01  0.00000E+00  0.11096E+00  0.46063E-01  0.00000E+00  0.11617E+00  0.45034E-01  0.00000E+00  0.12230E+00  0.44596E-01  0.00000E+00  0.12921E+00  0.43191E-01  0.00000E+00  0.13300E+00  0.43292E-01  0.00000E+00  0.13737E+00
        0.11245E+00  0.00000E+00  0.33425E-02  0.94159E-01  0.00000E+00  0.56303E-02  0.10391E+00  0.00000E+00  0.96785E-02  0.99291E-01  0.00000E+00  0.17108E-01  0.86578E-01  0.00000E+00  0.18588E-01  0.93875E-01  0.00000E+00  0.24673E-01
        0.78284E-01  0.00000E+00  0.25074E-01  0.86898E-01  0.00000E+00  0.31324E-01  0.71717E-01  0.00000E+00  0.32447E-01  0.81529E-01  0.00000E+00  0.38179E-01  0.68181E-01  0.00000E+00  0.40442E-01  0.79240E-01  0.00000E+00  0.46108E-01
        0.67054E-01  0.00000E+00  0.48954E-01  0.78124E-01  0.00000E+00  0.54525E-01  0.66265E-01  0.00000E+00  0.57836E-01  0.77195E-01  0.00000E+00  0.63389E-01  0.66526E-01  0.00000E+00  0.67104E-01  0.75022E-01  0.00000E+00  0.72422E-01
        0.67941E-01  0.00000E+00  0.76798E-01  0.71403E-01  0.00000E+00  0.82787E-01  0.67889E-01  0.00000E+00  0.87811E-01  0.68640E-01  0.00000E+00  0.93530E-01  0.66530E-01  0.00000E+00  0.98909E-01  0.66225E-01  0.00000E+00  0.10477E+00
        0.65127E-01  0.00000E+00  0.11044E+00  0.64032E-01  0.00000E+00  0.11548E+00  0.63451E-01  0.00000E+00  0.12161E+00  0.62451E-01  0.00000E+00  0.12851E+00  0.62717E-01  0.00000E+00  0.13222E+00  0.62177E-01  0.00000E+00  0.13648E+00
        0.14046E+00  0.00000E+00  0.33682E-02  0.12640E+00  0.00000E+00  0.62148E-02  0.11655E+00  0.00000E+00  0.12204E-01  0.12728E+00  0.00000E+00  0.16360E-01  0.11230E+00  0.00000E+00  0.20106E-01  0.12284E+00  0.00000E+00  0.24140E-01
        0.10527E+00  0.00000E+00  0.25988E-01  0.11484E+00  0.00000E+00  0.30937E-01  0.99378E-01  0.00000E+00  0.33941E-01  0.10872E+00  0.00000E+00  0.38906E-01  0.93441E-01  0.00000E+00  0.41096E-01  0.10339E+00  0.00000E+00  0.46463E-01
        0.90622E-01  0.00000E+00  0.49232E-01  0.10108E+00  0.00000E+00  0.55010E-01  0.89018E-01  0.00000E+00  0.57805E-01  0.98909E-01  0.00000E+00  0.63904E-01  0.88029E-01  0.00000E+00  0.67052E-01  0.95509E-01  0.00000E+00  0.73039E-01
        0.87890E-01  0.00000E+00  0.76940E-01  0.90717E-01  0.00000E+00  0.83236E-01  0.86945E-01  0.00000E+00  0.88183E-01  0.87321E-01  0.00000E+00  0.93860E-01  0.85390E-01  0.00000E+00  0.99266E-01  0.84696E-01  0.00000E+00  0.10504E+00
        0.83615E-01  0.00000E+00  0.11063E+00  0.82811E-01  0.00000E+00  0.11567E+00  0.81817E-01  0.00000E+00  0.12169E+00  0.81339E-01  0.00000E+00  0.12849E+00  0.80586E-01  0.00000E+00  0.13206E+00  0.80635E-01  0.00000E+00  0.13639E+00
        0.16057E+00  0.00000E+00  0.32191E-02  0.15076E+00  0.00000E+00  0.83381E-02  0.13683E+00  0.00000E+00  0.12109E-01  0.16180E+00  0.00000E+00  0.13612E-01  0.14583E+00  0.00000E+00  0.17029E-01  0.15531E+00  0.00000E+00  0.20354E-01
        0.13668E+00  0.00000E+00  0.22572E-01  0.13937E+00  0.00000E+00  0.30567E-01  0.12750E+00  0.00000E+00  0.31549E-01  0.13321E+00  0.00000E+00  0.38402E-01  0.11975E+00  0.00000E+00  0.39803E-01  0.12490E+00  0.00000E+00  0.47149E-01
        0.11396E+00  0.00000E+00  0.49300E-01  0.12232E+00  0.00000E+00  0.56913E-01  0.11143E+00  0.00000E+00  0.58622E-01  0.11981E+00  0.00000E+00  0.65753E-01  0.10945E+00  0.00000E+00  0.67954E-01  0.11518E+00  0.00000E+00  0.74751E-01
        0.10705E+00  0.00000E+00  0.78200E-01  0.10993E+00  0.00000E+00  0.84726E-01  0.10526E+00  0.00000E+00  0.89366E-01  0.10644E+00  0.00000E+00  0.95114E-01  0.10413E+00  0.00000E+00  0.10039E+00  0.10325E+00  0.00000E+00  0.10615E+00
        0.10263E+00  0.00000E+00  0.11167E+00  0.10135E+00  0.00000E+00  0.11652E+00  0.10055E+00  0.00000E+00  0.12263E+00  0.10015E+00  0.00000E+00  0.12940E+00  0.10001E+00  0.00000E+00  0.13271E+00  0.99731E-01  0.00000E+00  0.13697E+00
        0.18282E+00  0.00000E+00  0.30738E-02  0.19457E+00  0.00000E+00  0.72345E-02  0.17191E+00  0.00000E+00  0.79082E-02  0.18887E+00  0.00000E+00  0.13912E-01  0.17616E+00  0.00000E+00  0.15355E-01  0.18343E+00  0.00000E+00  0.20860E-01
        0.16963E+00  0.00000E+00  0.22338E-01  0.16253E+00  0.00000E+00  0.27344E-01  0.14989E+00  0.00000E+00  0.27909E-01  0.14958E+00  0.00000E+00  0.36233E-01  0.14647E+00  0.00000E+00  0.43934E-01  0.13677E+00  0.00000E+00  0.46437E-01
        0.14650E+00  0.00000E+00  0.53622E-01  0.13354E+00  0.00000E+00  0.54865E-01  0.14295E+00  0.00000E+00  0.62108E-01  0.13333E+00  0.00000E+00  0.63760E-01  0.13284E+00  0.00000E+00  0.70681E-01  0.13224E+00  0.00000E+00  0.76791E-01
        0.12556E+00  0.00000E+00  0.80600E-01  0.12949E+00  0.00000E+00  0.87248E-01  0.12378E+00  0.00000E+00  0.91445E-01  0.12579E+00  0.00000E+00  0.97252E-01  0.12320E+00  0.00000E+00  0.10241E+00  0.12203E+00  0.00000E+00  0.10809E+00
        0.12175E+00  0.00000E+00  0.11354E+00  0.12082E+00  0.00000E+00  0.11833E+00  0.11970E+00  0.00000E+00  0.12440E+00  0.11982E+00  0.00000E+00  0.13118E+00  0.11921E+00  0.00000E+00  0.13418E+00  0.11912E+00  0.00000E+00  0.13841E+00
        0.20643E+00  0.00000E+00  0.33150E-02  0.21765E+00  0.00000E+00  0.82103E-02  0.20645E+00  0.00000E+00  0.12608E-01  0.22783E+00  0.00000E+00  0.13174E-01  0.21546E+00  0.00000E+00  0.18045E-01  0.20019E+00  0.00000E+00  0.18850E-01
        0.19476E+00  0.00000E+00  0.25404E-01  0.18103E+00  0.00000E+00  0.29037E-01  0.17355E+00  0.00000E+00  0.33829E-01  0.16220E+00  0.00000E+00  0.35909E-01  0.16899E+00  0.00000E+00  0.43260E-01  0.15739E+00  0.00000E+00  0.44844E-01
        0.16748E+00  0.00000E+00  0.52255E-01  0.15681E+00  0.00000E+00  0.54456E-01  0.16428E+00  0.00000E+00  0.61990E-01  0.15537E+00  0.00000E+00  0.64202E-01  0.15076E+00  0.00000E+00  0.70174E-01  0.15233E+00  0.00000E+00  0.76724E-01
        0.14551E+00  0.00000E+00  0.80110E-01  0.14909E+00  0.00000E+00  0.86568E-01  0.14349E+00  0.00000E+00  0.91115E-01  0.14530E+00  0.00000E+00  0.96831E-01  0.14326E+00  0.00000E+00  0.10217E+00  0.14167E+00  0.00000E+00  0.10776E+00
        0.14183E+00  0.00000E+00  0.11315E+00  0.14078E+00  0.00000E+00  0.11796E+00  0.13954E+00  0.00000E+00  0.12401E+00  0.13996E+00  0.00000E+00  0.13075E+00  0.13946E+00  0.00000E+00  0.13368E+00  0.13918E+00  0.00000E+00  0.13793E+00
[...]
<PointData>
      <DataArray type="Float32" Name="Velocity vectors"  NumberOfComponents="3"  format="ascii" >
          0.85255E-01  0.00000E+00 -0.34181E-03  0.70347E-01  0.00000E+00 -0.52824E-02  0.68056E-01  0.00000E+00 -0.47035E-02  0.45216E-01  0.00000E+00 -0.27456E-02  0.53813E-02  0.00000E+00 -0.46208E-01  0.28029E-01  0.00000E+00 -0.45718E-01
         -0.79460E-02  0.00000E+00 -0.49175E-01  0.43850E-01  0.00000E+00 -0.64944E-01 -0.39043E-02  0.00000E+00 -0.78191E-01  0.14981E-01  0.00000E+00 -0.77319E-01 -0.89569E-02  0.00000E+00 -0.79514E-01  0.15172E-01  0.00000E+00 -0.86856E-01
         -0.24986E-01  0.00000E+00 -0.82804E-01  0.16598E-01  0.00000E+00 -0.84121E-01 -0.18252E-01  0.00000E+00 -0.83291E-01  0.18731E-01  0.00000E+00 -0.82244E-01  0.99497E-02  0.00000E+00 -0.81553E-01  0.18380E-01  0.00000E+00 -0.80811E-01
          0.18719E-01  0.00000E+00 -0.84001E-01  0.19770E-01  0.00000E+00 -0.88565E-01  0.18895E-01  0.00000E+00 -0.92615E-01  0.18929E-01  0.00000E+00 -0.94490E-01  0.19306E-01  0.00000E+00 -0.97471E-01  0.17521E-01  0.00000E+00 -0.10307E+00
          0.13733E-01  0.00000E+00 -0.10944E+00  0.13205E-01  0.00000E+00 -0.11113E+00  0.16325E-01  0.00000E+00 -0.11296E+00  0.85222E-02  0.00000E+00 -0.12061E+00  0.46258E-02  0.00000E+00 -0.12984E+00  0.49632E-02  0.00000E+00 -0.13371E+00
          0.10838E+00  0.00000E+00 -0.30919E-02  0.79622E-01  0.00000E+00 -0.99245E-02  0.93077E-01  0.00000E+00 -0.11522E-01  0.86746E-01  0.00000E+00 -0.12263E-01  0.70291E-01  0.00000E+00 -0.17168E-01  0.59582E-01  0.00000E+00 -0.28295E-01
          0.16497E-01  0.00000E+00 -0.37124E-01  0.37181E-01  0.00000E+00 -0.37880E-01  0.23908E-01  0.00000E+00 -0.41239E-01  0.37134E-01  0.00000E+00 -0.48360E-01  0.12321E-01  0.00000E+00 -0.57072E-01  0.23930E-01  0.00000E+00 -0.56589E-01
          0.76338E-02  0.00000E+00 -0.66315E-01  0.21336E-01  0.00000E+00 -0.71346E-01 -0.89718E-03  0.00000E+00 -0.76069E-01  0.32870E-01  0.00000E+00 -0.86335E-01 -0.23900E-01  0.00000E+00 -0.90846E-01  0.57064E-01  0.00000E+00 -0.11278E+00
         -0.11949E-01  0.00000E+00 -0.11696E+00  0.52987E-01  0.00000E+00 -0.11956E+00  0.35035E-01  0.00000E+00 -0.12651E+00  0.40312E-01  0.00000E+00 -0.12848E+00  0.33613E-01  0.00000E+00 -0.13031E+00  0.36634E-01  0.00000E+00 -0.13242E+00
          0.27999E-01  0.00000E+00 -0.13746E+00  0.40037E-01  0.00000E+00 -0.13911E+00  0.23274E-01  0.00000E+00 -0.14093E+00  0.30825E-01  0.00000E+00 -0.14356E+00  0.25786E-01  0.00000E+00 -0.15251E+00  0.27132E-01  0.00000E+00 -0.15350E+00
          0.12116E+00  0.00000E+00 -0.13404E-02  0.11428E+00  0.00000E+00 -0.44637E-02  0.14988E+00  0.00000E+00 -0.19795E-01  0.13881E+00  0.00000E+00 -0.21557E-01  0.10706E+00  0.00000E+00 -0.22686E-01  0.11428E+00  0.00000E+00 -0.28642E-01
          0.85932E-01  0.00000E+00 -0.28506E-01  0.86723E-01  0.00000E+00 -0.39958E-01  0.46111E-01  0.00000E+00 -0.46752E-01  0.58812E-01  0.00000E+00 -0.53124E-01  0.42310E-01  0.00000E+00 -0.53468E-01  0.54876E-01  0.00000E+00 -0.63360E-01
          0.39545E-01  0.00000E+00 -0.64205E-01  0.54610E-01  0.00000E+00 -0.74301E-01  0.38968E-01  0.00000E+00 -0.79061E-01  0.67911E-01  0.00000E+00 -0.88369E-01  0.20192E-01  0.00000E+00 -0.93152E-01  0.94801E-01  0.00000E+00 -0.10352E+00
          0.69714E-02  0.00000E+00 -0.12439E+00  0.91818E-01  0.00000E+00 -0.13269E+00  0.42275E-01  0.00000E+00 -0.13589E+00  0.64292E-01  0.00000E+00 -0.13789E+00  0.43411E-01  0.00000E+00 -0.14397E+00  0.54613E-01  0.00000E+00 -0.14368E+00
          0.43204E-01  0.00000E+00 -0.14980E+00  0.45481E-01  0.00000E+00 -0.15131E+00  0.40724E-01  0.00000E+00 -0.15092E+00  0.41108E-01  0.00000E+00 -0.15423E+00  0.36712E-01  0.00000E+00 -0.15987E+00  0.38553E-01  0.00000E+00 -0.16087E+00
          0.18664E+00  0.00000E+00 -0.10766E-02  0.16208E+00  0.00000E+00 -0.41026E-02  0.17817E+00  0.00000E+00 -0.12030E-01  0.14555E+00  0.00000E+00 -0.23628E-01  0.14149E+00  0.00000E+00 -0.17030E-01  0.14579E+00  0.00000E+00 -0.21957E-01
          0.12403E+00  0.00000E+00 -0.31261E-01  0.12412E+00  0.00000E+00 -0.35797E-01  0.94575E-01  0.00000E+00 -0.45754E-01  0.94667E-01  0.00000E+00 -0.52155E-01  0.69057E-01  0.00000E+00 -0.58398E-01  0.86784E-01  0.00000E+00 -0.64386E-01
          0.72344E-01  0.00000E+00 -0.70482E-01  0.90019E-01  0.00000E+00 -0.77593E-01  0.72558E-01  0.00000E+00 -0.86665E-01  0.10154E+00  0.00000E+00 -0.87479E-01  0.58001E-01  0.00000E+00 -0.98924E-01  0.12592E+00  0.00000E+00 -0.10199E+00
          0.42167E-01  0.00000E+00 -0.12648E+00  0.13068E+00  0.00000E+00 -0.12738E+00  0.53914E-01  0.00000E+00 -0.14358E+00  0.92516E-01  0.00000E+00 -0.14101E+00  0.57802E-01  0.00000E+00 -0.15150E+00  0.67801E-01  0.00000E+00 -0.15134E+00
          0.60333E-01  0.00000E+00 -0.15601E+00  0.54090E-01  0.00000E+00 -0.15957E+00  0.53996E-01  0.00000E+00 -0.15876E+00  0.50796E-01  0.00000E+00 -0.16178E+00  0.53121E-01  0.00000E+00 -0.16756E+00  0.51468E-01  0.00000E+00 -0.16903E+00
          0.23244E+00  0.00000E+00 -0.96331E-03  0.20824E+00  0.00000E+00 -0.86706E-02  0.19475E+00  0.00000E+00 -0.11181E-01  0.19889E+00  0.00000E+00 -0.16940E-01  0.15981E+00  0.00000E+00 -0.26174E-01  0.17240E+00  0.00000E+00 -0.29471E-01
          0.15371E+00  0.00000E+00 -0.32396E-01  0.16747E+00  0.00000E+00 -0.42949E-01  0.14397E+00  0.00000E+00 -0.37500E-01  0.15654E+00  0.00000E+00 -0.51486E-01  0.11625E+00  0.00000E+00 -0.55955E-01  0.13407E+00  0.00000E+00 -0.65847E-01
          0.10932E+00  0.00000E+00 -0.72454E-01  0.13575E+00  0.00000E+00 -0.83404E-01  0.11115E+00  0.00000E+00 -0.94700E-01  0.14321E+00  0.00000E+00 -0.95821E-01  0.96254E-01  0.00000E+00 -0.11241E+00  0.16193E+00  0.00000E+00 -0.11373E+00
          0.74791E-01  0.00000E+00 -0.14002E+00  0.15424E+00  0.00000E+00 -0.13184E+00  0.76124E-01  0.00000E+00 -0.15294E+00  0.10818E+00  0.00000E+00 -0.14689E+00  0.78623E-01  0.00000E+00 -0.15656E+00  0.81561E-01  0.00000E+00 -0.15708E+00
          0.74102E-01  0.00000E+00 -0.16228E+00  0.71189E-01  0.00000E+00 -0.16515E+00  0.66143E-01  0.00000E+00 -0.16522E+00  0.66470E-01  0.00000E+00 -0.16822E+00  0.64330E-01  0.00000E+00 -0.17428E+00  0.65534E-01  0.00000E+00 -0.17561E+00
          0.24670E+00  0.00000E+00 -0.10720E-02  0.23472E+00  0.00000E+00 -0.78012E-02  0.20966E+00  0.00000E+00 -0.10570E-01  0.26518E+00  0.00000E+00 -0.15764E-01  0.21656E+00  0.00000E+00 -0.16203E-01  0.23718E+00  0.00000E+00 -0.38308E-01
          0.19364E+00  0.00000E+00 -0.21134E-01  0.21599E+00  0.00000E+00 -0.28607E-01  0.19003E+00  0.00000E+00 -0.42907E-01  0.19638E+00  0.00000E+00 -0.54645E-01  0.17520E+00  0.00000E+00 -0.57891E-01  0.18187E+00  0.00000E+00 -0.67113E-01
          0.16063E+00  0.00000E+00 -0.78867E-01  0.17386E+00  0.00000E+00 -0.79824E-01  0.15675E+00  0.00000E+00 -0.10125E+00  0.18943E+00  0.00000E+00 -0.90612E-01  0.14053E+00  0.00000E+00 -0.12255E+00  0.19576E+00  0.00000E+00 -0.11774E+00
          0.10206E+00  0.00000E+00 -0.14968E+00  0.17009E+00  0.00000E+00 -0.13359E+00  0.89487E-01  0.00000E+00 -0.16269E+00  0.13438E+00  0.00000E+00 -0.15519E+00  0.97493E-01  0.00000E+00 -0.16486E+00  0.96900E-01  0.00000E+00 -0.16653E+00
          0.96247E-01  0.00000E+00 -0.17120E+00  0.85051E-01  0.00000E+00 -0.17452E+00  0.81608E-01  0.00000E+00 -0.17456E+00  0.80245E-01  0.00000E+00 -0.17788E+00  0.80181E-01  0.00000E+00 -0.18318E+00  0.79413E-01  0.00000E+00 -0.18389E+00
          0.29281E+00  0.00000E+00 -0.10633E-03  0.32478E+00  0.00000E+00 -0.89910E-02  0.26824E+00  0.00000E+00 -0.14511E-01  0.28790E+00  0.00000E+00 -0.26420E-01  0.28641E+00  0.00000E+00 -0.21513E-01  0.28560E+00  0.00000E+00 -0.24498E-01
          0.26428E+00  0.00000E+00 -0.30795E-01  0.23714E+00  0.00000E+00 -0.49373E-01  0.21512E+00  0.00000E+00 -0.52114E-01  0.23251E+00  0.00000E+00 -0.53114E-01  0.21533E+00  0.00000E+00 -0.53567E-01  0.20813E+00  0.00000E+00 -0.66636E-01
          0.22055E+00  0.00000E+00 -0.71665E-01  0.18915E+00  0.00000E+00 -0.89239E-01  0.21788E+00  0.00000E+00 -0.78500E-01  0.18225E+00  0.00000E+00 -0.11018E+00  0.19303E+00  0.00000E+00 -0.10859E+00  0.20492E+00  0.00000E+00 -0.86565E-01
          0.11041E+00  0.00000E+00 -0.13483E+00  0.19036E+00  0.00000E+00 -0.11557E+00  0.98982E-01  0.00000E+00 -0.14992E+00  0.15550E+00  0.00000E+00 -0.14557E+00  0.11307E+00  0.00000E+00 -0.15762E+00  0.10547E+00  0.00000E+00 -0.15732E+00
          0.10945E+00  0.00000E+00 -0.16370E+00  0.10126E+00  0.00000E+00 -0.16453E+00  0.93173E-01  0.00000E+00 -0.16502E+00  0.97002E-01  0.00000E+00 -0.16807E+00  0.95338E-01  0.00000E+00 -0.17395E+00  0.95882E-01  0.00000E+00 -0.17461E+00
          0.32715E+00  0.00000E+00 -0.12610E-05  0.33501E+00  0.00000E+00 -0.72907E-02  0.32338E+00  0.00000E+00  0.65895E-04  0.34258E+00  0.00000E+00 -0.76082E-02  0.33081E+00  0.00000E+00 -0.18690E-01  0.29880E+00  0.00000E+00 -0.20496E-01
          0.28789E+00  0.00000E+00 -0.32803E-01  0.26362E+00  0.00000E+00 -0.26938E-01  0.23498E+00  0.00000E+00 -0.54960E-01  0.22752E+00  0.00000E+00 -0.51193E-01  0.25813E+00  0.00000E+00 -0.60915E-01  0.23517E+00  0.00000E+00 -0.68063E-01
          0.25195E+00  0.00000E+00 -0.70635E-01  0.23138E+00  0.00000E+00 -0.85009E-01  0.26172E+00  0.00000E+00 -0.82116E-01  0.23432E+00  0.00000E+00 -0.10230E+00  0.18614E+00  0.00000E+00 -0.11668E+00  0.23554E+00  0.00000E+00 -0.94803E-01
          0.14025E+00  0.00000E+00 -0.13516E+00  0.21376E+00  0.00000E+00 -0.12361E+00  0.12541E+00  0.00000E+00 -0.15454E+00  0.17732E+00  0.00000E+00 -0.14372E+00  0.14338E+00  0.00000E+00 -0.15394E+00  0.12211E+00  0.00000E+00 -0.15619E+00
          0.13189E+00  0.00000E+00 -0.16303E+00  0.11961E+00  0.00000E+00 -0.16296E+00  0.10966E+00  0.00000E+00 -0.16442E+00  0.11715E+00  0.00000E+00 -0.16776E+00  0.11544E+00  0.00000E+00 -0.17341E+00  0.11521E+00  0.00000E+00 -0.17459E+00
          0.34300E+00  0.00000E+00  0.53175E-03  0.35496E+00  0.00000E+00 -0.10517E-01  0.35550E+00  0.00000E+00 -0.36872E-02  0.39625E+00  0.00000E+00 -0.30846E-01  0.34896E+00  0.00000E+00 -0.18485E-01  0.34422E+00  0.00000E+00 -0.10739E-01
          0.32061E+00  0.00000E+00 -0.30151E-01  0.30837E+00  0.00000E+00 -0.26752E-01  0.28524E+00  0.00000E+00 -0.40752E-01  0.26722E+00  0.00000E+00 -0.45927E-01  0.29502E+00  0.00000E+00 -0.50059E-01  0.26781E+00  0.00000E+00 -0.61702E-01
          0.28834E+00  0.00000E+00 -0.65627E-01  0.25376E+00  0.00000E+00 -0.92347E-01  0.27493E+00  0.00000E+00 -0.91475E-01  0.27341E+00  0.00000E+00 -0.77582E-01  0.22236E+00  0.00000E+00 -0.11179E+00  0.25427E+00  0.00000E+00 -0.99039E-01
          0.17063E+00  0.00000E+00 -0.14715E+00  0.23829E+00  0.00000E+00 -0.12766E+00  0.15314E+00  0.00000E+00 -0.16343E+00  0.20771E+00  0.00000E+00 -0.15463E+00  0.16389E+00  0.00000E+00 -0.16444E+00  0.14411E+00  0.00000E+00 -0.16640E+00
          0.15360E+00  0.00000E+00 -0.17426E+00  0.14067E+00  0.00000E+00 -0.17234E+00  0.13070E+00  0.00000E+00 -0.17468E+00  0.13834E+00  0.00000E+00 -0.17909E+00  0.13557E+00  0.00000E+00 -0.18360E+00  0.13578E+00  0.00000E+00 -0.18426E+00
          0.37465E+00  0.00000E+00  0.14659E-03  0.37594E+00  0.00000E+00 -0.54207E-02  0.44801E+00  0.00000E+00 -0.23093E-01  0.42112E+00  0.00000E+00 -0.26061E-01  0.41992E+00  0.00000E+00 -0.34567E-01  0.39953E+00  0.00000E+00 -0.34043E-01
          0.37156E+00  0.00000E+00 -0.43029E-01  0.35994E+00  0.00000E+00 -0.20968E-01  0.33267E+00  0.00000E+00 -0.36244E-01  0.32346E+00  0.00000E+00 -0.35770E-01  0.30538E+00  0.00000E+00 -0.61776E-01  0.30519E+00  0.00000E+00 -0.58841E-01
          0.30061E+00  0.00000E+00 -0.60411E-01  0.31270E+00  0.00000E+00 -0.65959E-01  0.26444E+00  0.00000E+00 -0.80920E-01  0.31162E+00  0.00000E+00 -0.78469E-01  0.26067E+00  0.00000E+00 -0.10941E+00  0.30078E+00  0.00000E+00 -0.96028E-01
          0.21900E+00  0.00000E+00 -0.12775E+00  0.26858E+00  0.00000E+00 -0.10548E+00  0.18058E+00  0.00000E+00 -0.15366E+00  0.22604E+00  0.00000E+00 -0.13813E+00  0.18309E+00  0.00000E+00 -0.14707E+00  0.15993E+00  0.00000E+00 -0.15150E+00
          0.17274E+00  0.00000E+00 -0.15775E+00  0.16092E+00  0.00000E+00 -0.15597E+00  0.14786E+00  0.00000E+00 -0.15930E+00  0.15791E+00  0.00000E+00 -0.16290E+00  0.15420E+00  0.00000E+00 -0.16776E+00  0.15419E+00  0.00000E+00 -0.16982E+00
          0.39875E+00  0.00000E+00 -0.14408E-02  0.45476E+00  0.00000E+00 -0.90321E-02  0.46270E+00  0.00000E+00 -0.60136E-02  0.44450E+00  0.00000E+00 -0.97953E-02  0.43511E+00  0.00000E+00 -0.20306E-01  0.41616E+00  0.00000E+00 -0.16829E-01
          0.41201E+00  0.00000E+00 -0.33519E-01  0.40907E+00  0.00000E+00 -0.41702E-01  0.38970E+00  0.00000E+00 -0.58202E-01  0.38001E+00  0.00000E+00 -0.49909E-01  0.35801E+00  0.00000E+00 -0.52771E-01  0.33692E+00  0.00000E+00 -0.60084E-01
          0.32092E+00  0.00000E+00 -0.57879E-01  0.34088E+00  0.00000E+00 -0.63559E-01  0.30780E+00  0.00000E+00 -0.84955E-01  0.36413E+00  0.00000E+00 -0.80043E-01  0.29335E+00  0.00000E+00 -0.11129E+00  0.32715E+00  0.00000E+00 -0.87294E-01
          0.24335E+00  0.00000E+00 -0.12795E+00  0.29134E+00  0.00000E+00 -0.10487E+00  0.20363E+00  0.00000E+00 -0.14667E+00  0.24992E+00  0.00000E+00 -0.13462E+00  0.20492E+00  0.00000E+00 -0.14581E+00  0.18060E+00  0.00000E+00 -0.14831E+00
          0.19379E+00  0.00000E+00 -0.15730E+00  0.18106E+00  0.00000E+00 -0.15516E+00  0.16790E+00  0.00000E+00 -0.15754E+00  0.17788E+00  0.00000E+00 -0.16216E+00  0.17403E+00  0.00000E+00 -0.16724E+00  0.17407E+00  0.00000E+00 -0.16857E+00
          0.47758E+00  0.00000E+00 -0.22046E-02  0.50465E+00  0.00000E+00 -0.86715E-02  0.49456E+00  0.00000E+00 -0.28688E-02  0.45955E+00  0.00000E+00 -0.23077E-01  0.45579E+00  0.00000E+00 -0.25602E-01  0.44795E+00  0.00000E+00 -0.17972E-01
          0.44576E+00  0.00000E+00 -0.24421E-01  0.43713E+00  0.00000E+00 -0.29235E-01  0.42779E+00  0.00000E+00 -0.37399E-01  0.41791E+00  0.00000E+00 -0.45530E-01  0.40277E+00  0.00000E+00 -0.61341E-01  0.38213E+00  0.00000E+00 -0.78818E-01
          0.36731E+00  0.00000E+00 -0.67470E-01  0.37146E+00  0.00000E+00 -0.67340E-01  0.34978E+00  0.00000E+00 -0.92837E-01  0.39140E+00  0.00000E+00 -0.84910E-01  0.32053E+00  0.00000E+00 -0.12107E+00  0.35091E+00  0.00000E+00 -0.88527E-01
          0.26459E+00  0.00000E+00 -0.12844E+00  0.31092E+00  0.00000E+00 -0.10822E+00  0.22615E+00  0.00000E+00 -0.14569E+00  0.27235E+00  0.00000E+00 -0.12841E+00  0.23336E+00  0.00000E+00 -0.14268E+00  0.20505E+00  0.00000E+00 -0.14423E+00
          0.21631E+00  0.00000E+00 -0.15193E+00  0.20362E+00  0.00000E+00 -0.15103E+00  0.18791E+00  0.00000E+00 -0.15425E+00  0.19789E+00  0.00000E+00 -0.15824E+00  0.19350E+00  0.00000E+00 -0.16363E+00  0.19338E+00  0.00000E+00 -0.16536E+00
          0.52200E+00  0.00000E+00 -0.16061E-02  0.54051E+00  0.00000E+00 -0.64951E-02  0.52437E+00  0.00000E+00 -0.33990E-02  0.49454E+00  0.00000E+00 -0.20775E-01  0.48941E+00  0.00000E+00 -0.22096E-01  0.47801E+00  0.00000E+00 -0.17665E-01
          0.47545E+00  0.00000E+00 -0.31024E-01  0.47065E+00  0.00000E+00 -0.34302E-01  0.46206E+00  0.00000E+00 -0.35013E-01  0.44598E+00  0.00000E+00 -0.39723E-01  0.43530E+00  0.00000E+00 -0.39951E-01  0.42019E+00  0.00000E+00 -0.52736E-01
          0.40497E+00  0.00000E+00 -0.66171E-01  0.38709E+00  0.00000E+00 -0.62487E-01  0.38596E+00  0.00000E+00 -0.10008E+00  0.35838E+00  0.00000E+00 -0.96447E-01  0.39740E+00  0.00000E+00 -0.86603E-01  0.33953E+00  0.00000E+00 -0.88452E-01
          0.27470E+00  0.00000E+00 -0.12258E+00  0.32653E+00  0.00000E+00 -0.98476E-01  0.24268E+00  0.00000E+00 -0.13611E+00  0.29659E+00  0.00000E+00 -0.12632E+00  0.25569E+00  0.00000E+00 -0.13626E+00  0.22395E+00  0.00000E+00 -0.13997E+00
          0.23812E+00  0.00000E+00 -0.14931E+00  0.22450E+00  0.00000E+00 -0.14634E+00  0.20732E+00  0.00000E+00 -0.15025E+00  0.21767E+00  0.00000E+00 -0.15471E+00  0.21275E+00  0.00000E+00 -0.15985E+00  0.21260E+00  0.00000E+00 -0.16147E+00
          0.55778E+00  0.00000E+00 -0.95499E-03  0.57211E+00  0.00000E+00 -0.47961E-02  0.55557E+00  0.00000E+00 -0.57364E-02  0.52722E+00  0.00000E+00 -0.19938E-01  0.52354E+00  0.00000E+00 -0.20908E-01  0.51041E+00  0.00000E+00 -0.17756E-01
          0.50844E+00  0.00000E+00 -0.27552E-01  0.50226E+00  0.00000E+00 -0.33232E-01  0.49139E+00  0.00000E+00 -0.36972E-01  0.48085E+00  0.00000E+00 -0.43434E-01  0.47393E+00  0.00000E+00 -0.44131E-01  0.45793E+00  0.00000E+00 -0.50079E-01
          0.44729E+00  0.00000E+00 -0.54917E-01  0.41351E+00  0.00000E+00 -0.59446E-01  0.40512E+00  0.00000E+00 -0.65829E-01  0.36664E+00  0.00000E+00 -0.87951E-01  0.40968E+00  0.00000E+00 -0.79525E-01  0.35064E+00  0.00000E+00 -0.79420E-01
          0.28786E+00  0.00000E+00 -0.10850E+00  0.34501E+00  0.00000E+00 -0.87657E-01  0.26156E+00  0.00000E+00 -0.12295E+00  0.32227E+00  0.00000E+00 -0.12194E+00  0.27876E+00  0.00000E+00 -0.12726E+00  0.24333E+00  0.00000E+00 -0.13168E+00
          0.25927E+00  0.00000E+00 -0.14414E+00  0.24547E+00  0.00000E+00 -0.13863E+00  0.22590E+00  0.00000E+00 -0.14354E+00  0.23807E+00  0.00000E+00 -0.14900E+00  0.23223E+00  0.00000E+00 -0.15339E+00  0.23214E+00  0.00000E+00 -0.15518E+00
          0.58997E+00  0.00000E+00 -0.41758E-03  0.60440E+00  0.00000E+00 -0.45423E-02  0.59272E+00  0.00000E+00 -0.84619E-02  0.56358E+00  0.00000E+00 -0.19684E-01  0.56282E+00  0.00000E+00 -0.22476E-01  0.54502E+00  0.00000E+00 -0.20800E-01
          0.54260E+00  0.00000E+00 -0.28213E-01  0.53531E+00  0.00000E+00 -0.35249E-01  0.52484E+00  0.00000E+00 -0.37095E-01  0.51263E+00  0.00000E+00 -0.42916E-01  0.50291E+00  0.00000E+00 -0.47544E-01  0.48901E+00  0.00000E+00 -0.51956E-01
          0.47702E+00  0.00000E+00 -0.49731E-01  0.45750E+00  0.00000E+00 -0.67206E-01  0.43746E+00  0.00000E+00 -0.54944E-01  0.41875E+00  0.00000E+00 -0.79060E-01  0.38591E+00  0.00000E+00 -0.83810E-01  0.37849E+00  0.00000E+00 -0.67004E-01
          0.30473E+00  0.00000E+00 -0.95176E-01  0.37096E+00  0.00000E+00 -0.83161E-01  0.28373E+00  0.00000E+00 -0.11292E+00  0.34946E+00  0.00000E+00 -0.11612E+00  0.30973E+00  0.00000E+00 -0.11778E+00  0.26745E+00  0.00000E+00 -0.12475E+00
          0.28327E+00  0.00000E+00 -0.13790E+00  0.26823E+00  0.00000E+00 -0.13101E+00  0.24653E+00  0.00000E+00 -0.13720E+00  0.25993E+00  0.00000E+00 -0.14320E+00  0.25297E+00  0.00000E+00 -0.14759E+00  0.25284E+00  0.00000E+00 -0.14993E+00
          0.62431E+00  0.00000E+00 -0.10807E-03  0.64103E+00  0.00000E+00 -0.58399E-02  0.63102E+00  0.00000E+00 -0.98003E-02  0.60402E+00  0.00000E+00 -0.19263E-01  0.60755E+00  0.00000E+00 -0.24795E-01  0.58372E+00  0.00000E+00 -0.23298E-01
          0.57944E+00  0.00000E+00 -0.28929E-01  0.57105E+00  0.00000E+00 -0.39115E-01  0.56117E+00  0.00000E+00 -0.40176E-01  0.54711E+00  0.00000E+00 -0.44238E-01  0.53689E+00  0.00000E+00 -0.46835E-01  0.52312E+00  0.00000E+00 -0.52282E-01
          0.51066E+00  0.00000E+00 -0.52041E-01  0.48975E+00  0.00000E+00 -0.64527E-01  0.46903E+00  0.00000E+00 -0.65901E-01  0.45129E+00  0.00000E+00 -0.61829E-01  0.41114E+00  0.00000E+00 -0.81955E-01  0.39602E+00  0.00000E+00 -0.71241E-01
          0.32944E+00  0.00000E+00 -0.10050E+00  0.39706E+00  0.00000E+00 -0.91934E-01  0.31367E+00  0.00000E+00 -0.11746E+00  0.38364E+00  0.00000E+00 -0.12524E+00  0.34104E+00  0.00000E+00 -0.12118E+00  0.29618E+00  0.00000E+00 -0.13193E+00
          0.30966E+00  0.00000E+00 -0.14484E+00  0.29305E+00  0.00000E+00 -0.13714E+00  0.27054E+00  0.00000E+00 -0.14434E+00  0.28343E+00  0.00000E+00 -0.15064E+00  0.27571E+00  0.00000E+00 -0.15500E+00  0.27540E+00  0.00000E+00 -0.15727E+00
          0.66585E+00  0.00000E+00 -0.99690E-04  0.66830E+00  0.00000E+00 -0.62486E-03  0.68643E+00  0.00000E+00 -0.69724E-02  0.63959E+00  0.00000E+00 -0.10239E-01  0.66291E+00  0.00000E+00 -0.31955E-01  0.62474E+00  0.00000E+00 -0.20570E-01