<?xml version="1.0"?>
<VTKFile type="UnstructuredGrid" version="0.1" byte_order="LittleEndian" compressor="vtkZLibDataCompressor">
<UnstructuredGrid>
  <Piece NumberOfPoints="1800"        NumberOfCells="1"      >
    <Points>
      <DataArray type="Float32" NumberOfComponents="3" format="ascii" >
        0.34405E-01  0.00000E+00  0.24878E-02  0.21536E-01  0.00000E+00  0.38717E-02  0.87225E-02  0.00000E+00  0.58993E-02  0.13377E-01  0.00000E+00  0.12086E-01  0.75066E-02  0.00000E+00  0.16348E-01  0.82050E-02  0.00000E+00  0.23191E-01
        0.78348E-02  0.00000E+00  0.29597E-01  0.88087E-02  0.00000E+00  0.35992E-01  0.83727E-02  0.00000E+00  0.42363E-01  0.89782E-02  0.00000E+00  0.48608E-01  0.90554E-02  0.00000E+00  0.54646E-01  0.98787E-02  0.00000E+00  0.60369E-01
        0.10053E-01  0.00000E+00  0.65769E-01  0.10330E-01  0.00000E+00  0.70980E-01  0.10258E-01  0.00000E+00  0.76109E-01  0.10215E-01  0.00000E+00  0.81260E-01  0.10038E-01  0.00000E+00  0.86428E-01  0.98655E-02  0.00000E+00  0.91633E-01
        0.96514E-02  0.00000E+00  0.96891E-01  0.94276E-02  0.00000E+00  0.10220E+00  0.91955E-02  0.00000E+00  0.10759E+00  0.89433E-02  0.00000E+00  0.11303E+00  0.86802E-02  0.00000E+00  0.11856E+00  0.84522E-02  0.00000E+00  0.12422E+00
        0.82025E-02  0.00000E+00  0.12996E+00  0.77883E-02  0.00000E+00  0.13568E+00  0.76937E-02  0.00000E+00  0.14176E+00  0.81394E-02  0.00000E+00  0.14832E+00  0.66319E-02  0.00000E+00  0.15409E+00  0.67627E-02  0.00000E+00  0.15849E+00
        0.47088E-01  0.00000E+00  0.37677E-02  0.27634E-01  0.00000E+00  0.11025E-01  0.41583E-01  0.00000E+00  0.11903E-01  0.34001E-01  0.00000E+00  0.17732E-01  0.21309E-01  0.00000E+00  0.18693E-01  0.31724E-01  0.00000E+00  0.25847E-01
        0.20455E-01  0.00000E+00  0.27754E-01  0.30173E-01  0.00000E+00  0.34149E-01  0.20412E-01  0.00000E+00  0.37909E-01  0.30209E-01  0.00000E+00  0.43446E-01  0.20966E-01  0.00000E+00  0.48348E-01  0.30229E-01  0.00000E+00  0.53350E-01
        0.22880E-01  0.00000E+00  0.59065E-01  0.29541E-01  0.00000E+00  0.64303E-01  0.26066E-01  0.00000E+00  0.70210E-01  0.28043E-01  0.00000E+00  0.76064E-01  0.27031E-01  0.00000E+00  0.81912E-01  0.27050E-01  0.00000E+00  0.87879E-01
        0.26646E-01  0.00000E+00  0.93794E-01  0.26338E-01  0.00000E+00  0.99736E-01  0.25967E-01  0.00000E+00  0.10573E+00  0.25586E-01  0.00000E+00  0.11174E+00  0.25177E-01  0.00000E+00  0.11765E+00  0.24766E-01  0.00000E+00  0.12370E+00
        0.24284E-01  0.00000E+00  0.13000E+00  0.24093E-01  0.00000E+00  0.13572E+00  0.23078E-01  0.00000E+00  0.14158E+00  0.23549E-01  0.00000E+00  0.14912E+00  0.22145E-01  0.00000E+00  0.15418E+00  0.22414E-01  0.00000E+00  0.15865E+00
        0.63775E-01  0.00000E+00  0.34683E-02  0.54548E-01  0.00000E+00  0.99317E-02  0.68597E-01  0.00000E+00  0.12043E-01  0.59006E-01  0.00000E+00  0.17545E-01  0.46548E-01  0.00000E+00  0.20056E-01  0.55626E-01  0.00000E+00  0.25598E-01
        0.42664E-01  0.00000E+00  0.28413E-01  0.52301E-01  0.00000E+00  0.33964E-01  0.40957E-01  0.00000E+00  0.37617E-01  0.50739E-01  0.00000E+00  0.43192E-01  0.40202E-01  0.00000E+00  0.47462E-01  0.49712E-01  0.00000E+00  0.53092E-01
        0.40310E-01  0.00000E+00  0.57914E-01  0.47552E-01  0.00000E+00  0.63498E-01  0.42805E-01  0.00000E+00  0.69234E-01  0.45034E-01  0.00000E+00  0.75270E-01  0.43810E-01  0.00000E+00  0.81187E-01  0.43866E-01  0.00000E+00  0.87269E-01
        0.43350E-01  0.00000E+00  0.93326E-01  0.43014E-01  0.00000E+00  0.99367E-01  0.42576E-01  0.00000E+00  0.10547E+00  0.42169E-01  0.00000E+00  0.11162E+00  0.41672E-01  0.00000E+00  0.11764E+00  0.41252E-01  0.00000E+00  0.12378E+00
        0.40675E-01  0.00000E+00  0.13017E+00  0.40236E-01  0.00000E+00  0.13599E+00  0.39692E-01  0.00000E+00  0.14198E+00  0.39357E-01  0.00000E+00  0.14944E+00  0.38420E-01  0.00000E+00  0.15428E+00  0.38413E-01  0.00000E+00  0.15892E+00
        0.92140E-01  0.00000E+00  0.33692E-02  0.77207E-01  0.00000E+00  0.63584E-02  0.85462E-01  0.00000E+00  0.11535E-01  0.82906E-01  0.00000E+00  0.19744E-01  0.70979E-01  0.00000E+00  0.20509E-01  0.78141E-01  0.00000E+00  0.27419E-01
        0.65609E-01  0.00000E+00  0.28914E-01  0.74301E-01  0.00000E+00  0.35827E-01  0.62407E-01  0.00000E+00  0.38075E-01  0.71219E-01  0.00000E+00  0.44599E-01  0.60178E-01  0.00000E+00  0.47801E-01  0.68859E-01  0.00000E+00  0.54241E-01
        0.59016E-01  0.00000E+00  0.58386E-01  0.65759E-01  0.00000E+00  0.64522E-01  0.59847E-01  0.00000E+00  0.69654E-01  0.62369E-01  0.00000E+00  0.75740E-01  0.60596E-01  0.00000E+00  0.81609E-01  0.60640E-01  0.00000E+00  0.87665E-01
        0.60035E-01  0.00000E+00  0.93722E-01  0.59664E-01  0.00000E+00  0.99773E-01  0.59130E-01  0.00000E+00  0.10588E+00  0.58715E-01  0.00000E+00  0.11202E+00  0.58137E-01  0.00000E+00  0.11803E+00  0.57670E-01  0.00000E+00  0.12419E+00
        0.57120E-01  0.00000E+00  0.13054E+00  0.56571E-01  0.00000E+00  0.13628E+00  0.56202E-01  0.00000E+00  0.14229E+00  0.55610E-01  0.00000E+00  0.14972E+00  0.55712E-01  0.00000E+00  0.15444E+00  0.55354E-01  0.00000E+00  0.15897E+00
        0.11609E+00  0.00000E+00  0.34231E-02  0.10415E+00  0.00000E+00  0.71934E-02  0.96604E-01  0.00000E+00  0.13810E-01  0.10653E+00  0.00000E+00  0.18968E-01  0.94533E-01  0.00000E+00  0.22715E-01  0.10381E+00  0.00000E+00  0.27856E-01
        0.88945E-01  0.00000E+00  0.29847E-01  0.96658E-01  0.00000E+00  0.36193E-01  0.84563E-01  0.00000E+00  0.38871E-01  0.91625E-01  0.00000E+00  0.45536E-01  0.80508E-01  0.00000E+00  0.48572E-01  0.87564E-01  0.00000E+00  0.55377E-01
        0.77874E-01  0.00000E+00  0.59253E-01  0.83285E-01  0.00000E+00  0.65884E-01  0.77552E-01  0.00000E+00  0.70795E-01  0.79323E-01  0.00000E+00  0.77029E-01  0.77550E-01  0.00000E+00  0.82816E-01  0.77439E-01  0.00000E+00  0.88832E-01
        0.76752E-01  0.00000E+00  0.94815E-01  0.76342E-01  0.00000E+00  0.10080E+00  0.75773E-01  0.00000E+00  0.10684E+00  0.75321E-01  0.00000E+00  0.11290E+00  0.74755E-01  0.00000E+00  0.11881E+00  0.74253E-01  0.00000E+00  0.12489E+00
        0.73742E-01  0.00000E+00  0.13115E+00  0.73291E-01  0.00000E+00  0.13676E+00  0.72796E-01  0.00000E+00  0.14271E+00  0.72487E-01  0.00000E+00  0.15004E+00  0.71986E-01  0.00000E+00  0.15459E+00  0.71973E-01  0.00000E+00  0.15917E+00
        0.13423E+00  0.00000E+00  0.34082E-02  0.12614E+00  0.00000E+00  0.94377E-02  0.11433E+00  0.00000E+00  0.12928E-01  0.13310E+00  0.00000E+00  0.16755E-01  0.12164E+00  0.00000E+00  0.19396E-01  0.12904E+00  0.00000E+00  0.25571E-01
        0.11546E+00  0.00000E+00  0.26164E-01  0.11633E+00  0.00000E+00  0.34771E-01  0.10678E+00  0.00000E+00  0.37380E-01  0.11039E+00  0.00000E+00  0.45568E-01  0.10053E+00  0.00000E+00  0.48102E-01  0.10397E+00  0.00000E+00  0.56232E-01
        0.96228E-01  0.00000E+00  0.60586E-01  0.99813E-01  0.00000E+00  0.67468E-01  0.95351E-01  0.00000E+00  0.72680E-01  0.96146E-01  0.00000E+00  0.78858E-01  0.94653E-01  0.00000E+00  0.84555E-01  0.94450E-01  0.00000E+00  0.90536E-01
        0.93704E-01  0.00000E+00  0.96425E-01  0.93342E-01  0.00000E+00  0.10232E+00  0.92689E-01  0.00000E+00  0.10826E+00  0.92291E-01  0.00000E+00  0.11422E+00  0.91704E-01  0.00000E+00  0.12000E+00  0.91173E-01  0.00000E+00  0.12601E+00
        0.90746E-01  0.00000E+00  0.13216E+00  0.90213E-01  0.00000E+00  0.13757E+00  0.89786E-01  0.00000E+00  0.14353E+00  0.89533E-01  0.00000E+00  0.15084E+00  0.89403E-01  0.00000E+00  0.15512E+00  0.89209E-01  0.00000E+00  0.15957E+00
        0.15060E+00  0.00000E+00  0.33523E-02  0.15909E+00  0.00000E+00  0.89232E-02  0.14250E+00  0.00000E+00  0.10306E-01  0.15679E+00  0.00000E+00  0.17043E-01  0.14495E+00  0.00000E+00  0.18392E-01  0.15188E+00  0.00000E+00  0.25118E-01
        0.14083E+00  0.00000E+00  0.27067E-01  0.13618E+00  0.00000E+00  0.34195E-01  0.12628E+00  0.00000E+00  0.35784E-01  0.12411E+00  0.00000E+00  0.43752E-01  0.12194E+00  0.00000E+00  0.50894E-01  0.11462E+00  0.00000E+00  0.55872E-01
        0.11964E+00  0.00000E+00  0.63080E-01  0.11314E+00  0.00000E+00  0.67437E-01  0.11457E+00  0.00000E+00  0.73843E-01  0.11293E+00  0.00000E+00  0.79555E-01  0.11224E+00  0.00000E+00  0.85389E-01  0.11177E+00  0.00000E+00  0.91293E-01
        0.11107E+00  0.00000E+00  0.97147E-01  0.11072E+00  0.00000E+00  0.10300E+00  0.11005E+00  0.00000E+00  0.10891E+00  0.10968E+00  0.00000E+00  0.11480E+00  0.10912E+00  0.00000E+00  0.12053E+00  0.10857E+00  0.00000E+00  0.12650E+00
        0.10817E+00  0.00000E+00  0.13259E+00  0.10771E+00  0.00000E+00  0.13789E+00  0.10718E+00  0.00000E+00  0.14382E+00  0.10702E+00  0.00000E+00  0.15110E+00  0.10656E+00  0.00000E+00  0.15524E+00  0.10644E+00  0.00000E+00  0.15966E+00
        0.16958E+00  0.00000E+00  0.33859E-02  0.17946E+00  0.00000E+00  0.94771E-02  0.17010E+00  0.00000E+00  0.13697E-01  0.18809E+00  0.00000E+00  0.15520E-01  0.17744E+00  0.00000E+00  0.21304E-01  0.16618E+00  0.00000E+00  0.22177E-01
        0.16237E+00  0.00000E+00  0.30618E-01  0.15213E+00  0.00000E+00  0.34131E-01  0.14755E+00  0.00000E+00  0.41229E-01  0.13798E+00  0.00000E+00  0.42837E-01  0.13985E+00  0.00000E+00  0.51056E-01  0.13159E+00  0.00000E+00  0.54807E-01
        0.13663E+00  0.00000E+00  0.61651E-01  0.13114E+00  0.00000E+00  0.66728E-01  0.13215E+00  0.00000E+00  0.73261E-01  0.13061E+00  0.00000E+00  0.78920E-01  0.12975E+00  0.00000E+00  0.84718E-01  0.12928E+00  0.00000E+00  0.90641E-01
        0.12859E+00  0.00000E+00  0.96484E-01  0.12823E+00  0.00000E+00  0.10232E+00  0.12756E+00  0.00000E+00  0.10823E+00  0.12721E+00  0.00000E+00  0.11412E+00  0.12668E+00  0.00000E+00  0.11984E+00  0.12610E+00  0.00000E+00  0.12582E+00
        0.12577E+00  0.00000E+00  0.13190E+00  0.12530E+00  0.00000E+00  0.13719E+00  0.12473E+00  0.00000E+00  0.14317E+00  0.12462E+00  0.00000E+00  0.15043E+00  0.12422E+00  0.00000E+00  0.15452E+00  0.12400E+00  0.00000E+00  0.15897E+00
[...]
<PointData>
      <DataArray type="Float32" Name="Velocity vectors"  NumberOfComponents="3"  format="ascii" >
          0.79050E-01  0.00000E+00 -0.82049E-03  0.58859E-01  0.00000E+00 -0.53472E-03  0.14656E-01  0.00000E+00 -0.16979E-01  0.86023E-01  0.00000E+00 -0.32359E-01 -0.10982E-01  0.00000E+00 -0.69691E-01  0.64657E-02  0.00000E+00 -0.69782E-01
          0.22103E-02  0.00000E+00 -0.77859E-01  0.68594E-02  0.00000E+00 -0.80456E-01 -0.49996E-02  0.00000E+00 -0.80950E-01 -0.29555E-02  0.00000E+00 -0.78726E-01 -0.67514E-02  0.00000E+00 -0.75066E-01  0.29607E-02  0.00000E+00 -0.71246E-01
          0.50130E-02  0.00000E+00 -0.69731E-01  0.12594E-01  0.00000E+00 -0.70871E-01  0.15679E-01  0.00000E+00 -0.75016E-01  0.19092E-01  0.00000E+00 -0.80546E-01  0.19846E-01  0.00000E+00 -0.87169E-01  0.20744E-01  0.00000E+00 -0.93853E-01
          0.20520E-01  0.00000E+00 -0.10108E+00  0.20377E-01  0.00000E+00 -0.10863E+00  0.19815E-01  0.00000E+00 -0.11653E+00  0.18770E-01  0.00000E+00 -0.12489E+00  0.17806E-01  0.00000E+00 -0.13302E+00  0.16891E-01  0.00000E+00 -0.14113E+00
          0.14261E-01  0.00000E+00 -0.15053E+00  0.11532E-01  0.00000E+00 -0.15968E+00  0.12757E-01  0.00000E+00 -0.16543E+00  0.10488E-01  0.00000E+00 -0.17225E+00  0.32736E-02  0.00000E+00 -0.18321E+00  0.51160E-02  0.00000E+00 -0.19187E+00
          0.88442E-01  0.00000E+00 -0.25385E-02  0.66847E-01  0.00000E+00 -0.59658E-02  0.75798E-01  0.00000E+00 -0.10600E-01  0.76215E-01  0.00000E+00 -0.16536E-01  0.33320E-01  0.00000E+00 -0.24921E-01  0.38287E-01  0.00000E+00 -0.30699E-01
          0.15332E-01  0.00000E+00 -0.47519E-01  0.23151E-01  0.00000E+00 -0.43925E-01  0.73396E-02  0.00000E+00 -0.62220E-01  0.15117E-01  0.00000E+00 -0.57434E-01 -0.44436E-02  0.00000E+00 -0.72125E-01  0.20954E-01  0.00000E+00 -0.76791E-01
         -0.24094E-01  0.00000E+00 -0.86182E-01  0.51762E-01  0.00000E+00 -0.10590E+00 -0.79680E-02  0.00000E+00 -0.10720E+00  0.51632E-01  0.00000E+00 -0.11681E+00  0.31752E-01  0.00000E+00 -0.12378E+00  0.43260E-01  0.00000E+00 -0.12812E+00
          0.40692E-01  0.00000E+00 -0.13430E+00  0.41409E-01  0.00000E+00 -0.13959E+00  0.40414E-01  0.00000E+00 -0.14440E+00  0.39304E-01  0.00000E+00 -0.14994E+00  0.37636E-01  0.00000E+00 -0.15611E+00  0.36304E-01  0.00000E+00 -0.15949E+00
          0.33390E-01  0.00000E+00 -0.16449E+00  0.33578E-01  0.00000E+00 -0.17419E+00  0.27085E-01  0.00000E+00 -0.17493E+00  0.27744E-01  0.00000E+00 -0.17841E+00  0.21895E-01  0.00000E+00 -0.19232E+00  0.22147E-01  0.00000E+00 -0.19712E+00
          0.97413E-01  0.00000E+00 -0.10982E-02  0.95652E-01  0.00000E+00 -0.85551E-02  0.11850E+00  0.00000E+00 -0.14151E-01  0.11235E+00  0.00000E+00 -0.18864E-01  0.89661E-01  0.00000E+00 -0.22431E-01  0.78458E-01  0.00000E+00 -0.29601E-01
          0.47811E-01  0.00000E+00 -0.38131E-01  0.55082E-01  0.00000E+00 -0.46092E-01  0.36721E-01  0.00000E+00 -0.52086E-01  0.48783E-01  0.00000E+00 -0.59958E-01  0.32803E-01  0.00000E+00 -0.69713E-01  0.56664E-01  0.00000E+00 -0.78722E-01
          0.15728E-01  0.00000E+00 -0.88868E-01  0.87958E-01  0.00000E+00 -0.10309E+00  0.89989E-02  0.00000E+00 -0.11625E+00  0.79028E-01  0.00000E+00 -0.12258E+00  0.50046E-01  0.00000E+00 -0.13177E+00  0.63840E-01  0.00000E+00 -0.13688E+00
          0.58603E-01  0.00000E+00 -0.14287E+00  0.59400E-01  0.00000E+00 -0.14900E+00  0.57523E-01  0.00000E+00 -0.15406E+00  0.56530E-01  0.00000E+00 -0.15973E+00  0.54014E-01  0.00000E+00 -0.16610E+00  0.52784E-01  0.00000E+00 -0.16957E+00
          0.49580E-01  0.00000E+00 -0.17490E+00  0.48021E-01  0.00000E+00 -0.18372E+00  0.44926E-01  0.00000E+00 -0.18343E+00  0.42926E-01  0.00000E+00 -0.18801E+00  0.39458E-01  0.00000E+00 -0.20037E+00  0.39547E-01  0.00000E+00 -0.20394E+00
          0.14965E+00  0.00000E+00  0.22789E-03  0.12148E+00  0.00000E+00 -0.89702E-02  0.13079E+00  0.00000E+00 -0.17352E-01  0.12488E+00  0.00000E+00 -0.22492E-01  0.11538E+00  0.00000E+00 -0.16687E-01  0.11314E+00  0.00000E+00 -0.26446E-01
          0.86750E-01  0.00000E+00 -0.35759E-01  0.90053E-01  0.00000E+00 -0.42281E-01  0.68823E-01  0.00000E+00 -0.51689E-01  0.83620E-01  0.00000E+00 -0.58348E-01  0.68157E-01  0.00000E+00 -0.70505E-01  0.95860E-01  0.00000E+00 -0.77004E-01
          0.58406E-01  0.00000E+00 -0.90572E-01  0.12676E+00  0.00000E+00 -0.97018E-01  0.40872E-01  0.00000E+00 -0.12123E+00  0.11103E+00  0.00000E+00 -0.12573E+00  0.69912E-01  0.00000E+00 -0.13688E+00  0.85683E-01  0.00000E+00 -0.14241E+00
          0.78770E-01  0.00000E+00 -0.14869E+00  0.79399E-01  0.00000E+00 -0.15472E+00  0.76086E-01  0.00000E+00 -0.16005E+00  0.75288E-01  0.00000E+00 -0.16584E+00  0.71709E-01  0.00000E+00 -0.17220E+00  0.69777E-01  0.00000E+00 -0.17563E+00
          0.66669E-01  0.00000E+00 -0.18107E+00  0.63645E-01  0.00000E+00 -0.18980E+00  0.61491E-01  0.00000E+00 -0.18925E+00  0.58387E-01  0.00000E+00 -0.19394E+00  0.58933E-01  0.00000E+00 -0.20513E+00  0.57764E-01  0.00000E+00 -0.20824E+00
          0.17926E+00  0.00000E+00 -0.17638E-02  0.16230E+00  0.00000E+00 -0.89938E-02  0.14104E+00  0.00000E+00 -0.16223E-01  0.15231E+00  0.00000E+00 -0.26553E-01  0.13468E+00  0.00000E+00 -0.22501E-01  0.14648E+00  0.00000E+00 -0.36722E-01
          0.12037E+00  0.00000E+00 -0.36790E-01  0.13647E+00  0.00000E+00 -0.47466E-01  0.10923E+00  0.00000E+00 -0.50210E-01  0.13356E+00  0.00000E+00 -0.64915E-01  0.10708E+00  0.00000E+00 -0.75416E-01  0.14113E+00  0.00000E+00 -0.87104E-01
          0.97676E-01  0.00000E+00 -0.98146E-01  0.16534E+00  0.00000E+00 -0.10164E+00  0.79490E-01  0.00000E+00 -0.12999E+00  0.13687E+00  0.00000E+00 -0.12574E+00  0.95171E-01  0.00000E+00 -0.13794E+00  0.10604E+00  0.00000E+00 -0.14355E+00
          0.97294E-01  0.00000E+00 -0.14905E+00  0.97212E-01  0.00000E+00 -0.15415E+00  0.93098E-01  0.00000E+00 -0.15911E+00  0.91396E-01  0.00000E+00 -0.16443E+00  0.87578E-01  0.00000E+00 -0.17011E+00  0.84810E-01  0.00000E+00 -0.17316E+00
          0.81670E-01  0.00000E+00 -0.17867E+00  0.79387E-01  0.00000E+00 -0.18701E+00  0.76606E-01  0.00000E+00 -0.18614E+00  0.74964E-01  0.00000E+00 -0.19103E+00  0.73328E-01  0.00000E+00 -0.20248E+00  0.73500E-01  0.00000E+00 -0.20552E+00
          0.20309E+00  0.00000E+00 -0.30285E-02  0.18538E+00  0.00000E+00 -0.10167E-01  0.16552E+00  0.00000E+00 -0.93994E-02  0.21650E+00  0.00000E+00 -0.34591E-01  0.18941E+00  0.00000E+00 -0.31469E-01  0.19542E+00  0.00000E+00 -0.48312E-01
          0.16201E+00  0.00000E+00 -0.45307E-01  0.17449E+00  0.00000E+00 -0.49479E-01  0.15840E+00  0.00000E+00 -0.61573E-01  0.18336E+00  0.00000E+00 -0.70584E-01  0.15058E+00  0.00000E+00 -0.92057E-01  0.17653E+00  0.00000E+00 -0.87471E-01
          0.12234E+00  0.00000E+00 -0.11214E+00  0.19165E+00  0.00000E+00 -0.10447E+00  0.10789E+00  0.00000E+00 -0.12892E+00  0.14886E+00  0.00000E+00 -0.12447E+00  0.11551E+00  0.00000E+00 -0.13597E+00  0.12277E+00  0.00000E+00 -0.13704E+00
          0.11256E+00  0.00000E+00 -0.14280E+00  0.11370E+00  0.00000E+00 -0.14659E+00  0.10761E+00  0.00000E+00 -0.15033E+00  0.10731E+00  0.00000E+00 -0.15511E+00  0.10324E+00  0.00000E+00 -0.16013E+00  0.10041E+00  0.00000E+00 -0.16259E+00
          0.98539E-01  0.00000E+00 -0.16813E+00  0.95561E-01  0.00000E+00 -0.17704E+00  0.93461E-01  0.00000E+00 -0.17522E+00  0.92659E-01  0.00000E+00 -0.18016E+00  0.92656E-01  0.00000E+00 -0.19283E+00  0.92196E-01  0.00000E+00 -0.19594E+00
          0.24265E+00  0.00000E+00 -0.38283E-02  0.26137E+00  0.00000E+00 -0.17353E-01  0.22411E+00  0.00000E+00 -0.20741E-01  0.24917E+00  0.00000E+00 -0.26413E-01  0.23559E+00  0.00000E+00 -0.28730E-01  0.24971E+00  0.00000E+00 -0.42461E-01
          0.22143E+00  0.00000E+00 -0.53601E-01  0.21390E+00  0.00000E+00 -0.62693E-01  0.18615E+00  0.00000E+00 -0.85688E-01  0.19388E+00  0.00000E+00 -0.82708E-01  0.19575E+00  0.00000E+00 -0.72755E-01  0.15480E+00  0.00000E+00 -0.93706E-01
          0.22324E+00  0.00000E+00 -0.88109E-01  0.13204E+00  0.00000E+00 -0.12423E+00  0.18487E+00  0.00000E+00 -0.11312E+00  0.14289E+00  0.00000E+00 -0.12830E+00  0.13658E+00  0.00000E+00 -0.12986E+00  0.13286E+00  0.00000E+00 -0.13295E+00
          0.12505E+00  0.00000E+00 -0.13815E+00  0.12660E+00  0.00000E+00 -0.14106E+00  0.12043E+00  0.00000E+00 -0.14445E+00  0.12164E+00  0.00000E+00 -0.14904E+00  0.11864E+00  0.00000E+00 -0.15339E+00  0.11621E+00  0.00000E+00 -0.15543E+00
          0.11596E+00  0.00000E+00 -0.16082E+00  0.11473E+00  0.00000E+00 -0.16970E+00  0.11213E+00  0.00000E+00 -0.16717E+00  0.11307E+00  0.00000E+00 -0.17209E+00  0.11214E+00  0.00000E+00 -0.18571E+00  0.11200E+00  0.00000E+00 -0.18886E+00
          0.28403E+00  0.00000E+00 -0.21897E-02  0.29697E+00  0.00000E+00 -0.12923E-01  0.27693E+00  0.00000E+00 -0.20768E-01  0.31110E+00  0.00000E+00 -0.33705E-01  0.29594E+00  0.00000E+00 -0.36931E-01  0.26787E+00  0.00000E+00 -0.38500E-01
          0.25585E+00  0.00000E+00 -0.48163E-01  0.22262E+00  0.00000E+00 -0.56925E-01  0.21282E+00  0.00000E+00 -0.67623E-01  0.18725E+00  0.00000E+00 -0.77447E-01  0.21694E+00  0.00000E+00 -0.71543E-01  0.17413E+00  0.00000E+00 -0.97599E-01
          0.24531E+00  0.00000E+00 -0.94924E-01  0.16667E+00  0.00000E+00 -0.12050E+00  0.20192E+00  0.00000E+00 -0.10855E+00  0.16342E+00  0.00000E+00 -0.12113E+00  0.15127E+00  0.00000E+00 -0.12489E+00  0.14910E+00  0.00000E+00 -0.12949E+00
          0.14067E+00  0.00000E+00 -0.13491E+00  0.14186E+00  0.00000E+00 -0.13885E+00  0.13614E+00  0.00000E+00 -0.14339E+00  0.13765E+00  0.00000E+00 -0.14866E+00  0.13574E+00  0.00000E+00 -0.15366E+00  0.13358E+00  0.00000E+00 -0.15632E+00
          0.13487E+00  0.00000E+00 -0.16236E+00  0.13413E+00  0.00000E+00 -0.17140E+00  0.13195E+00  0.00000E+00 -0.16889E+00  0.13464E+00  0.00000E+00 -0.17449E+00  0.13431E+00  0.00000E+00 -0.18783E+00  0.13388E+00  0.00000E+00 -0.19033E+00
          0.31929E+00  0.00000E+00 -0.32348E-02  0.34217E+00  0.00000E+00 -0.15953E-01  0.35059E+00  0.00000E+00 -0.11131E-01  0.36118E+00  0.00000E+00 -0.20167E-01  0.32689E+00  0.00000E+00 -0.46160E-01  0.31359E+00  0.00000E+00 -0.39250E-01
          0.29165E+00  0.00000E+00 -0.56209E-01  0.27986E+00  0.00000E+00 -0.66195E-01  0.25969E+00  0.00000E+00 -0.73646E-01  0.24636E+00  0.00000E+00 -0.88886E-01  0.26257E+00  0.00000E+00 -0.82989E-01  0.20889E+00  0.00000E+00 -0.12311E+00
          0.23881E+00  0.00000E+00 -0.10762E+00  0.19571E+00  0.00000E+00 -0.11092E+00  0.19454E+00  0.00000E+00 -0.10725E+00  0.19396E+00  0.00000E+00 -0.11102E+00  0.16983E+00  0.00000E+00 -0.11749E+00  0.17103E+00  0.00000E+00 -0.12112E+00
          0.16032E+00  0.00000E+00 -0.12776E+00  0.16260E+00  0.00000E+00 -0.13240E+00  0.15631E+00  0.00000E+00 -0.13722E+00  0.15880E+00  0.00000E+00 -0.14328E+00  0.15678E+00  0.00000E+00 -0.14871E+00  0.15486E+00  0.00000E+00 -0.15194E+00
          0.15648E+00  0.00000E+00 -0.15827E+00  0.15569E+00  0.00000E+00 -0.16770E+00  0.15328E+00  0.00000E+00 -0.16573E+00  0.15600E+00  0.00000E+00 -0.17088E+00  0.15503E+00  0.00000E+00 -0.18464E+00  0.15482E+00  0.00000E+00 -0.18784E+00
          0.36064E+00  0.00000E+00 -0.16333E-02  0.37204E+00  0.00000E+00 -0.12413E-01  0.39923E+00  0.00000E+00 -0.12541E-01  0.37231E+00  0.00000E+00 -0.25657E-01  0.39205E+00  0.00000E+00 -0.40068E-01  0.37671E+00  0.00000E+00 -0.39780E-01
          0.33825E+00  0.00000E+00 -0.58208E-01  0.32482E+00  0.00000E+00 -0.60015E-01  0.29986E+00  0.00000E+00 -0.75243E-01  0.28646E+00  0.00000E+00 -0.77950E-01  0.26135E+00  0.00000E+00 -0.91572E-01  0.24867E+00  0.00000E+00 -0.78437E-01
          0.19841E+00  0.00000E+00 -0.10074E+00  0.27068E+00  0.00000E+00 -0.10357E+00  0.19300E+00  0.00000E+00 -0.12251E+00  0.21723E+00  0.00000E+00 -0.12139E+00  0.18993E+00  0.00000E+00 -0.12872E+00  0.19125E+00  0.00000E+00 -0.13247E+00
          0.18164E+00  0.00000E+00 -0.13735E+00  0.18347E+00  0.00000E+00 -0.14179E+00  0.17758E+00  0.00000E+00 -0.14639E+00  0.17945E+00  0.00000E+00 -0.15187E+00  0.17797E+00  0.00000E+00 -0.15654E+00  0.17596E+00  0.00000E+00 -0.15950E+00
          0.17772E+00  0.00000E+00 -0.16556E+00  0.17724E+00  0.00000E+00 -0.17383E+00  0.17457E+00  0.00000E+00 -0.17179E+00  0.17775E+00  0.00000E+00 -0.17736E+00  0.17681E+00  0.00000E+00 -0.18996E+00  0.17630E+00  0.00000E+00 -0.19233E+00
          0.38798E+00  0.00000E+00 -0.11474E-02  0.41151E+00  0.00000E+00 -0.14076E-01  0.43404E+00  0.00000E+00 -0.15826E-01  0.41483E+00  0.00000E+00 -0.27159E-01  0.41864E+00  0.00000E+00 -0.29512E-01  0.40621E+00  0.00000E+00 -0.33286E-01
          0.38794E+00  0.00000E+00 -0.49056E-01  0.37707E+00  0.00000E+00 -0.49068E-01  0.34539E+00  0.00000E+00 -0.72990E-01  0.32754E+00  0.00000E+00 -0.81849E-01  0.30034E+00  0.00000E+00 -0.92869E-01  0.28062E+00  0.00000E+00 -0.87063E-01
          0.23325E+00  0.00000E+00 -0.12419E+00  0.29167E+00  0.00000E+00 -0.11472E+00  0.21858E+00  0.00000E+00 -0.12281E+00  0.22141E+00  0.00000E+00 -0.12047E+00  0.21061E+00  0.00000E+00 -0.12652E+00  0.20761E+00  0.00000E+00 -0.12995E+00
          0.19902E+00  0.00000E+00 -0.13509E+00  0.20136E+00  0.00000E+00 -0.13937E+00  0.19474E+00  0.00000E+00 -0.14410E+00  0.19723E+00  0.00000E+00 -0.14926E+00  0.19570E+00  0.00000E+00 -0.15422E+00  0.19366E+00  0.00000E+00 -0.15715E+00
          0.19605E+00  0.00000E+00 -0.16301E+00  0.19568E+00  0.00000E+00 -0.17130E+00  0.19304E+00  0.00000E+00 -0.16954E+00  0.19703E+00  0.00000E+00 -0.17475E+00  0.19580E+00  0.00000E+00 -0.18699E+00  0.19557E+00  0.00000E+00 -0.18995E+00
          0.43430E+00  0.00000E+00 -0.87297E-03  0.45432E+00  0.00000E+00 -0.12791E-01  0.46759E+00  0.00000E+00 -0.12450E-01  0.44249E+00  0.00000E+00 -0.22806E-01  0.44838E+00  0.00000E+00 -0.27281E-01  0.43722E+00  0.00000E+00 -0.30242E-01
          0.42391E+00  0.00000E+00 -0.43450E-01  0.40917E+00  0.00000E+00 -0.47320E-01  0.38903E+00  0.00000E+00 -0.59793E-01  0.36820E+00  0.00000E+00 -0.67008E-01  0.33230E+00  0.00000E+00 -0.85912E-01  0.31288E+00  0.00000E+00 -0.81540E-01
          0.27556E+00  0.00000E+00 -0.12320E+00  0.30262E+00  0.00000E+00 -0.10506E+00  0.21966E+00  0.00000E+00 -0.12436E+00  0.23129E+00  0.00000E+00 -0.11901E+00  0.22590E+00  0.00000E+00 -0.12450E+00  0.22536E+00  0.00000E+00 -0.12856E+00
          0.21760E+00  0.00000E+00 -0.13333E+00  0.22078E+00  0.00000E+00 -0.13749E+00  0.21419E+00  0.00000E+00 -0.14253E+00  0.21686E+00  0.00000E+00 -0.14800E+00  0.21551E+00  0.00000E+00 -0.15296E+00  0.21359E+00  0.00000E+00 -0.15623E+00
          0.21610E+00  0.00000E+00 -0.16238E+00  0.21587E+00  0.00000E+00 -0.17055E+00  0.21300E+00  0.00000E+00 -0.16916E+00  0.21717E+00  0.00000E+00 -0.17451E+00  0.21583E+00  0.00000E+00 -0.18668E+00  0.21550E+00  0.00000E+00 -0.18950E+00
          0.47097E+00  0.00000E+00 -0.43221E-03  0.48846E+00  0.00000E+00 -0.11637E-01  0.49967E+00  0.00000E+00 -0.11340E-01  0.47459E+00  0.00000E+00 -0.21639E-01  0.47978E+00  0.00000E+00 -0.25679E-01  0.46806E+00  0.00000E+00 -0.29338E-01
          0.45833E+00  0.00000E+00 -0.40927E-01  0.44475E+00  0.00000E+00 -0.45446E-01  0.42660E+00  0.00000E+00 -0.55330E-01  0.40515E+00  0.00000E+00 -0.63697E-01  0.38177E+00  0.00000E+00 -0.74355E-01  0.35205E+00  0.00000E+00 -0.77305E-01
          0.31546E+00  0.00000E+00 -0.11021E+00  0.31173E+00  0.00000E+00 -0.98573E-01  0.23737E+00  0.00000E+00 -0.12444E+00  0.23603E+00  0.00000E+00 -0.11504E+00  0.24318E+00  0.00000E+00 -0.12249E+00  0.24117E+00  0.00000E+00 -0.12695E+00
          0.23484E+00  0.00000E+00 -0.13024E+00  0.24026E+00  0.00000E+00 -0.13454E+00  0.23306E+00  0.00000E+00 -0.13978E+00  0.23648E+00  0.00000E+00 -0.14483E+00  0.23523E+00  0.00000E+00 -0.14988E+00  0.23289E+00  0.00000E+00 -0.15322E+00
          0.23566E+00  0.00000E+00 -0.15925E+00  0.23532E+00  0.00000E+00 -0.16736E+00  0.23193E+00  0.00000E+00 -0.16606E+00  0.23646E+00  0.00000E+00 -0.17129E+00  0.23481E+00  0.00000E+00 -0.18320E+00  0.23451E+00  0.00000E+00 -0.18619E+00
          0.50512E+00  0.00000E+00 -0.55611E-03  0.52275E+00  0.00000E+00 -0.11620E-01  0.53037E+00  0.00000E+00 -0.10525E-01  0.50479E+00  0.00000E+00 -0.21050E-01  0.50952E+00  0.00000E+00 -0.25588E-01  0.49770E+00  0.00000E+00 -0.28724E-01
          0.48941E+00  0.00000E+00 -0.37855E-01  0.47744E+00  0.00000E+00 -0.44008E-01  0.46246E+00  0.00000E+00 -0.52789E-01  0.44374E+00  0.00000E+00 -0.58812E-01  0.42348E+00  0.00000E+00 -0.70284E-01  0.39417E+00  0.00000E+00 -0.82848E-01
          0.36790E+00  0.00000E+00 -0.83843E-01  0.32910E+00  0.00000E+00 -0.97174E-01  0.26782E+00  0.00000E+00 -0.12223E+00  0.25065E+00  0.00000E+00 -0.11335E+00  0.25699E+00  0.00000E+00 -0.12244E+00  0.25590E+00  0.00000E+00 -0.12709E+00
          0.25117E+00  0.00000E+00 -0.12912E+00  0.25914E+00  0.00000E+00 -0.13318E+00  0.25181E+00  0.00000E+00 -0.13858E+00  0.25623E+00  0.00000E+00 -0.14316E+00  0.25522E+00  0.00000E+00 -0.14792E+00  0.25259E+00  0.00000E+00 -0.15136E+00
          0.25571E+00  0.00000E+00 -0.15727E+00  0.25540E+00  0.00000E+00 -0.16511E+00  0.25121E+00  0.00000E+00 -0.16397E+00  0.25607E+00  0.00000E+00 -0.16899E+00  0.25408E+00  0.00000E+00 -0.18091E+00  0.25371E+00  0.00000E+00 -0.18400E+00
          0.54116E+00  0.00000E+00 -0.72589E-03  0.55828E+00  0.00000E+00 -0.11454E-01  0.56107E+00  0.00000E+00 -0.91976E-02  0.53436E+00  0.00000E+00 -0.20944E-01  0.53962E+00  0.00000E+00 -0.26133E-01  0.52657E+00  0.00000E+00 -0.28838E-01
          0.51904E+00  0.00000E+00 -0.36549E-01  0.50872E+00  0.00000E+00 -0.43071E-01  0.49636E+00  0.00000E+00 -0.50598E-01  0.47985E+00  0.00000E+00 -0.56500E-01  0.45973E+00  0.00000E+00 -0.64692E-01  0.43382E+00  0.00000E+00 -0.79642E-01
          0.40287E+00  0.00000E+00 -0.81938E-01  0.37093E+00  0.00000E+00 -0.81713E-01  0.31918E+00  0.00000E+00 -0.11862E+00  0.27227E+00  0.00000E+00 -0.11905E+00  0.27176E+00  0.00000E+00 -0.12320E+00  0.27140E+00  0.00000E+00 -0.13207E+00
          0.26655E+00  0.00000E+00 -0.13356E+00  0.27647E+00  0.00000E+00 -0.13598E+00  0.26987E+00  0.00000E+00 -0.14196E+00  0.27516E+00  0.00000E+00 -0.14627E+00  0.27460E+00  0.00000E+00 -0.15020E+00  0.27190E+00  0.00000E+00 -0.15373E+00
          0.27520E+00  0.00000E+00 -0.15949E+00  0.27488E+00  0.00000E+00 -0.16660E+00  0.27025E+00  0.00000E+00 -0.16555E+00  0.27517E+00  0.00000E+00 -0.17060E+00  0.27296E+00  0.00000E+00 -0.18181E+00  0.27248E+00  0.00000E+00 -0.18458E+00
          0.57844E+00  0.00000E+00 -0.69632E-03  0.59164E+00  0.00000E+00 -0.10003E-01  0.59585E+00  0.00000E+00 -0.79325E-02  0.56530E+00  0.00000E+00 -0.19233E-01  0.57510E+00  0.00000E+00 -0.28177E-01  0.55859E+00  0.00000E+00 -0.29621E-01
          0.54905E+00  0.00000E+00 -0.37141E-01  0.53984E+00  0.00000E+00 -0.43705E-01  0.52922E+00  0.00000E+00 -0.50197E-01  0.51411E+00  0.00000E+00 -0.55676E-01  0.49614E+00  0.00000E+00 -0.61772E-01  0.47137E+00  0.00000E+00 -0.74784E-01
          0.44418E+00  0.00000E+00 -0.83474E-01  0.40685E+00  0.00000E+00 -0.81410E-01  0.37639E+00  0.00000E+00 -0.10357E+00  0.31772E+00  0.00000E+00 -0.12798E+00  0.29164E+00  0.00000E+00 -0.11969E+00  0.28782E+00  0.00000E+00 -0.13110E+00
          0.28056E+00  0.00000E+00 -0.13748E+00  0.29332E+00  0.00000E+00 -0.13700E+00  0.28608E+00  0.00000E+00 -0.14212E+00  0.29286E+00  0.00000E+00 -0.14759E+00  0.29267E+00  0.00000E+00 -0.15070E+00  0.28970E+00  0.00000E+00 -0.15394E+00
          0.29350E+00  0.00000E+00 -0.15980E+00  0.29319E+00  0.00000E+00 -0.16645E+00  0.28792E+00  0.00000E+00 -0.16541E+00  0.29332E+00  0.00000E+00 -0.17033E+00  0.29085E+00  0.00000E+00 -0.18114E+00  0.29038E+00  0.00000E+00 -0.18390E+00
          0.60826E+00  0.00000E+00 -0.77767E-03  0.62091E+00  0.00000E+00 -0.91718E-02  0.63557E+00  0.00000E+00 -0.10338E-01  0.59861E+00  0.00000E+00 -0.13143E-01  0.62540E+00  0.00000E+00 -0.33812E-01  0.59862E+00  0.00000E+00 -0.30721E-01