<?xml version="1.0"?>
<VTKFile type="UnstructuredGrid" version="0.1" byte_order="LittleEndian" compressor="vtkZLibDataCompressor">
<UnstructuredGrid>
  <Piece NumberOfPoints="1800"        NumberOfCells="1"      >
    <Points>
      <DataArray type="Float32" NumberOfComponents="3" format="ascii" >
        0.31112E-01  0.00000E+00  0.24921E-02  0.18927E-01  0.00000E+00  0.38789E-02  0.79547E-02  0.00000E+00  0.67508E-02  0.10368E-01  0.00000E+00  0.13609E-01  0.78993E-02  0.00000E+00  0.19045E-01  0.79374E-02  0.00000E+00  0.25737E-01
        0.77125E-02  0.00000E+00  0.32535E-01  0.85540E-02  0.00000E+00  0.39013E-01  0.85570E-02  0.00000E+00  0.45359E-01  0.90700E-02  0.00000E+00  0.51478E-01  0.92270E-02  0.00000E+00  0.57346E-01  0.96427E-02  0.00000E+00  0.62881E-01
        0.96795E-02  0.00000E+00  0.68265E-01  0.96944E-02  0.00000E+00  0.73620E-01  0.95271E-02  0.00000E+00  0.78992E-01  0.93849E-02  0.00000E+00  0.84395E-01  0.92057E-02  0.00000E+00  0.89851E-01  0.90192E-02  0.00000E+00  0.95358E-01
        0.88219E-02  0.00000E+00  0.10093E+00  0.86162E-02  0.00000E+00  0.10657E+00  0.84118E-02  0.00000E+00  0.11230E+00  0.82065E-02  0.00000E+00  0.11810E+00  0.79916E-02  0.00000E+00  0.12398E+00  0.78040E-02  0.00000E+00  0.12999E+00
        0.76520E-02  0.00000E+00  0.13612E+00  0.73555E-02  0.00000E+00  0.14222E+00  0.72211E-02  0.00000E+00  0.14854E+00  0.77192E-02  0.00000E+00  0.15539E+00  0.65020E-02  0.00000E+00  0.16158E+00  0.65572E-02  0.00000E+00  0.16634E+00
        0.43463E-01  0.00000E+00  0.38314E-02  0.25203E-01  0.00000E+00  0.11216E-01  0.38534E-01  0.00000E+00  0.12313E-01  0.31191E-01  0.00000E+00  0.18538E-01  0.20126E-01  0.00000E+00  0.19652E-01  0.30216E-01  0.00000E+00  0.27102E-01
        0.19786E-01  0.00000E+00  0.29725E-01  0.29282E-01  0.00000E+00  0.35879E-01  0.20129E-01  0.00000E+00  0.40381E-01  0.29559E-01  0.00000E+00  0.45747E-01  0.21400E-01  0.00000E+00  0.51231E-01  0.28868E-01  0.00000E+00  0.56572E-01
        0.24163E-01  0.00000E+00  0.62607E-01  0.27076E-01  0.00000E+00  0.68592E-01  0.25756E-01  0.00000E+00  0.74624E-01  0.26052E-01  0.00000E+00  0.80772E-01  0.25613E-01  0.00000E+00  0.86864E-01  0.25377E-01  0.00000E+00  0.93009E-01
        0.25049E-01  0.00000E+00  0.99159E-01  0.24738E-01  0.00000E+00  0.10531E+00  0.24405E-01  0.00000E+00  0.11148E+00  0.24068E-01  0.00000E+00  0.11771E+00  0.23726E-01  0.00000E+00  0.12387E+00  0.23373E-01  0.00000E+00  0.13006E+00
        0.23000E-01  0.00000E+00  0.13656E+00  0.22810E-01  0.00000E+00  0.14268E+00  0.22052E-01  0.00000E+00  0.14860E+00  0.22461E-01  0.00000E+00  0.15627E+00  0.21336E-01  0.00000E+00  0.16188E+00  0.21573E-01  0.00000E+00  0.16659E+00
        0.59920E-01  0.00000E+00  0.34819E-02  0.50724E-01  0.00000E+00  0.10199E-01  0.63962E-01  0.00000E+00  0.12532E-01  0.54594E-01  0.00000E+00  0.18204E-01  0.43191E-01  0.00000E+00  0.21005E-01  0.52673E-01  0.00000E+00  0.26707E-01
        0.40855E-01  0.00000E+00  0.30001E-01  0.50156E-01  0.00000E+00  0.35756E-01  0.39458E-01  0.00000E+00  0.39750E-01  0.48729E-01  0.00000E+00  0.45576E-01  0.38993E-01  0.00000E+00  0.50347E-01  0.46938E-01  0.00000E+00  0.56194E-01
        0.40206E-01  0.00000E+00  0.61620E-01  0.43669E-01  0.00000E+00  0.67858E-01  0.41937E-01  0.00000E+00  0.73924E-01  0.42176E-01  0.00000E+00  0.80179E-01  0.41678E-01  0.00000E+00  0.86442E-01  0.41440E-01  0.00000E+00  0.92709E-01
        0.41068E-01  0.00000E+00  0.99007E-01  0.40734E-01  0.00000E+00  0.10530E+00  0.40362E-01  0.00000E+00  0.11159E+00  0.39994E-01  0.00000E+00  0.11797E+00  0.39582E-01  0.00000E+00  0.12424E+00  0.39208E-01  0.00000E+00  0.13053E+00
        0.38743E-01  0.00000E+00  0.13713E+00  0.38363E-01  0.00000E+00  0.14331E+00  0.37931E-01  0.00000E+00  0.14931E+00  0.37661E-01  0.00000E+00  0.15696E+00  0.36895E-01  0.00000E+00  0.16230E+00  0.36877E-01  0.00000E+00  0.16711E+00
        0.86372E-01  0.00000E+00  0.33185E-02  0.72470E-01  0.00000E+00  0.67213E-02  0.80366E-01  0.00000E+00  0.12188E-01  0.78021E-01  0.00000E+00  0.20551E-01  0.66461E-01  0.00000E+00  0.21089E-01  0.73741E-01  0.00000E+00  0.28338E-01
        0.62258E-01  0.00000E+00  0.30327E-01  0.70785E-01  0.00000E+00  0.37401E-01  0.59660E-01  0.00000E+00  0.40114E-01  0.67737E-01  0.00000E+00  0.46871E-01  0.57484E-01  0.00000E+00  0.50682E-01  0.64422E-01  0.00000E+00  0.57273E-01
        0.57195E-01  0.00000E+00  0.62228E-01  0.60354E-01  0.00000E+00  0.68606E-01  0.58026E-01  0.00000E+00  0.74549E-01  0.58392E-01  0.00000E+00  0.80809E-01  0.57727E-01  0.00000E+00  0.87046E-01  0.57430E-01  0.00000E+00  0.93306E-01
        0.57007E-01  0.00000E+00  0.99600E-01  0.56641E-01  0.00000E+00  0.10589E+00  0.56218E-01  0.00000E+00  0.11219E+00  0.55839E-01  0.00000E+00  0.11856E+00  0.55384E-01  0.00000E+00  0.12482E+00  0.54986E-01  0.00000E+00  0.13111E+00
        0.54543E-01  0.00000E+00  0.13768E+00  0.54105E-01  0.00000E+00  0.14378E+00  0.53805E-01  0.00000E+00  0.14977E+00  0.53328E-01  0.00000E+00  0.15740E+00  0.53395E-01  0.00000E+00  0.16257E+00  0.53083E-01  0.00000E+00  0.16727E+00
        0.10908E+00  0.00000E+00  0.34958E-02  0.97878E-01  0.00000E+00  0.75434E-02  0.91169E-01  0.00000E+00  0.14447E-01  0.10058E+00  0.00000E+00  0.20016E-01  0.89280E-01  0.00000E+00  0.23553E-01  0.98044E-01  0.00000E+00  0.29258E-01
        0.84236E-01  0.00000E+00  0.31279E-01  0.91266E-01  0.00000E+00  0.38003E-01  0.80207E-01  0.00000E+00  0.40864E-01  0.86160E-01  0.00000E+00  0.48049E-01  0.76165E-01  0.00000E+00  0.51641E-01  0.81191E-01  0.00000E+00  0.58698E-01
        0.74446E-01  0.00000E+00  0.63463E-01  0.76710E-01  0.00000E+00  0.70020E-01  0.74448E-01  0.00000E+00  0.75900E-01  0.74555E-01  0.00000E+00  0.82079E-01  0.73865E-01  0.00000E+00  0.88240E-01  0.73529E-01  0.00000E+00  0.94436E-01
        0.73073E-01  0.00000E+00  0.10064E+00  0.72684E-01  0.00000E+00  0.10683E+00  0.72243E-01  0.00000E+00  0.11304E+00  0.71848E-01  0.00000E+00  0.11932E+00  0.71404E-01  0.00000E+00  0.12547E+00  0.70990E-01  0.00000E+00  0.13167E+00
        0.70574E-01  0.00000E+00  0.13815E+00  0.70194E-01  0.00000E+00  0.14412E+00  0.69788E-01  0.00000E+00  0.15004E+00  0.69514E-01  0.00000E+00  0.15758E+00  0.69091E-01  0.00000E+00  0.16261E+00  0.69061E-01  0.00000E+00  0.16735E+00
        0.12622E+00  0.00000E+00  0.35615E-02  0.11884E+00  0.00000E+00  0.98224E-02  0.10798E+00  0.00000E+00  0.13380E-01  0.12465E+00  0.00000E+00  0.18129E-01  0.11408E+00  0.00000E+00  0.20823E-01  0.12147E+00  0.00000E+00  0.27489E-01
        0.10916E+00  0.00000E+00  0.28234E-01  0.10944E+00  0.00000E+00  0.36886E-01  0.10048E+00  0.00000E+00  0.40016E-01  0.10279E+00  0.00000E+00  0.48372E-01  0.94601E-01  0.00000E+00  0.52128E-01  0.96356E-01  0.00000E+00  0.59687E-01
        0.91905E-01  0.00000E+00  0.65215E-01  0.92674E-01  0.00000E+00  0.71560E-01  0.91145E-01  0.00000E+00  0.77462E-01  0.90940E-01  0.00000E+00  0.83612E-01  0.90291E-01  0.00000E+00  0.89640E-01  0.89919E-01  0.00000E+00  0.95724E-01
        0.89429E-01  0.00000E+00  0.10183E+00  0.89041E-01  0.00000E+00  0.10790E+00  0.88560E-01  0.00000E+00  0.11401E+00  0.88172E-01  0.00000E+00  0.12018E+00  0.87710E-01  0.00000E+00  0.12621E+00  0.87265E-01  0.00000E+00  0.13233E+00
        0.86886E-01  0.00000E+00  0.13873E+00  0.86449E-01  0.00000E+00  0.14453E+00  0.86084E-01  0.00000E+00  0.15044E+00  0.85837E-01  0.00000E+00  0.15797E+00  0.85702E-01  0.00000E+00  0.16278E+00  0.85521E-01  0.00000E+00  0.16740E+00
        0.14112E+00  0.00000E+00  0.35098E-02  0.14889E+00  0.00000E+00  0.96540E-02  0.13366E+00  0.00000E+00  0.11143E-01  0.14705E+00  0.00000E+00  0.18060E-01  0.13578E+00  0.00000E+00  0.19528E-01  0.14176E+00  0.00000E+00  0.26783E-01
        0.13198E+00  0.00000E+00  0.29503E-01  0.12734E+00  0.00000E+00  0.36740E-01  0.11882E+00  0.00000E+00  0.39665E-01  0.11623E+00  0.00000E+00  0.47337E-01  0.11383E+00  0.00000E+00  0.53961E-01  0.10931E+00  0.00000E+00  0.59755E-01
        0.11090E+00  0.00000E+00  0.66424E-01  0.10843E+00  0.00000E+00  0.72099E-01  0.10828E+00  0.00000E+00  0.78186E-01  0.10765E+00  0.00000E+00  0.84243E-01  0.10712E+00  0.00000E+00  0.90232E-01  0.10669E+00  0.00000E+00  0.96263E-01
        0.10619E+00  0.00000E+00  0.10231E+00  0.10579E+00  0.00000E+00  0.10832E+00  0.10528E+00  0.00000E+00  0.11438E+00  0.10487E+00  0.00000E+00  0.12048E+00  0.10439E+00  0.00000E+00  0.12643E+00  0.10392E+00  0.00000E+00  0.13250E+00
        0.10352E+00  0.00000E+00  0.13884E+00  0.10311E+00  0.00000E+00  0.14455E+00  0.10267E+00  0.00000E+00  0.15041E+00  0.10247E+00  0.00000E+00  0.15790E+00  0.10206E+00  0.00000E+00  0.16261E+00  0.10194E+00  0.00000E+00  0.16722E+00
        0.15837E+00  0.00000E+00  0.34815E-02  0.16770E+00  0.00000E+00  0.99462E-02  0.15932E+00  0.00000E+00  0.14678E-01  0.17596E+00  0.00000E+00  0.16913E-01  0.16587E+00  0.00000E+00  0.22757E-01  0.15555E+00  0.00000E+00  0.23883E-01
        0.15217E+00  0.00000E+00  0.32452E-01  0.14331E+00  0.00000E+00  0.36411E-01  0.13887E+00  0.00000E+00  0.43608E-01  0.13060E+00  0.00000E+00  0.46308E-01  0.13105E+00  0.00000E+00  0.53866E-01  0.12582E+00  0.00000E+00  0.58903E-01
        0.12752E+00  0.00000E+00  0.65421E-01  0.12527E+00  0.00000E+00  0.71367E-01  0.12519E+00  0.00000E+00  0.77509E-01  0.12458E+00  0.00000E+00  0.83565E-01  0.12403E+00  0.00000E+00  0.89583E-01  0.12358E+00  0.00000E+00  0.95656E-01
        0.12307E+00  0.00000E+00  0.10171E+00  0.12265E+00  0.00000E+00  0.10774E+00  0.12211E+00  0.00000E+00  0.11382E+00  0.12170E+00  0.00000E+00  0.11993E+00  0.12121E+00  0.00000E+00  0.12589E+00  0.12070E+00  0.00000E+00  0.13197E+00
        0.12032E+00  0.00000E+00  0.13831E+00  0.11987E+00  0.00000E+00  0.14400E+00  0.11938E+00  0.00000E+00  0.14989E+00  0.11918E+00  0.00000E+00  0.15738E+00  0.11881E+00  0.00000E+00  0.16203E+00  0.11861E+00  0.00000E+00  0.16662E+00
[...]
<PointData>
      <DataArray type="Float32" Name="Velocity vectors"  NumberOfComponents="3"  format="ascii" >
          0.86672E-01  0.00000E+00  0.21562E-03  0.72461E-01  0.00000E+00 -0.25676E-02  0.24337E-01  0.00000E+00 -0.31425E-01  0.48438E-01  0.00000E+00 -0.44563E-01 -0.36263E-02  0.00000E+00 -0.61332E-01  0.82079E-02  0.00000E+00 -0.62481E-01
          0.35834E-02  0.00000E+00 -0.70871E-01  0.48730E-02  0.00000E+00 -0.73285E-01 -0.30386E-02  0.00000E+00 -0.72860E-01 -0.57783E-03  0.00000E+00 -0.70193E-01 -0.34906E-03  0.00000E+00 -0.67018E-01  0.80747E-02  0.00000E+00 -0.65035E-01
          0.11796E-01  0.00000E+00 -0.67116E-01  0.16147E-01  0.00000E+00 -0.72745E-01  0.17338E-01  0.00000E+00 -0.79896E-01  0.18886E-01  0.00000E+00 -0.86923E-01  0.19006E-01  0.00000E+00 -0.94590E-01  0.19135E-01  0.00000E+00 -0.10281E+00
          0.18760E-01  0.00000E+00 -0.11128E+00  0.18176E-01  0.00000E+00 -0.12006E+00  0.17442E-01  0.00000E+00 -0.12910E+00  0.16274E-01  0.00000E+00 -0.13855E+00  0.14938E-01  0.00000E+00 -0.14790E+00  0.13958E-01  0.00000E+00 -0.15680E+00
          0.12032E-01  0.00000E+00 -0.16632E+00  0.92386E-02  0.00000E+00 -0.17604E+00  0.10031E-01  0.00000E+00 -0.18274E+00  0.97952E-02  0.00000E+00 -0.18927E+00  0.28261E-02  0.00000E+00 -0.19970E+00  0.51638E-02  0.00000E+00 -0.20935E+00
          0.92857E-01  0.00000E+00 -0.14165E-02  0.55011E-01  0.00000E+00 -0.58725E-02  0.76819E-01  0.00000E+00 -0.11229E-01  0.59385E-01  0.00000E+00 -0.25610E-01  0.25591E-01  0.00000E+00 -0.27957E-01  0.36727E-01  0.00000E+00 -0.36314E-01
          0.17505E-01  0.00000E+00 -0.55637E-01  0.21753E-01  0.00000E+00 -0.48267E-01  0.59578E-02  0.00000E+00 -0.66622E-01  0.18928E-01  0.00000E+00 -0.65767E-01 -0.14159E-01  0.00000E+00 -0.78377E-01  0.43830E-01  0.00000E+00 -0.92897E-01
         -0.22703E-01  0.00000E+00 -0.98289E-01  0.54150E-01  0.00000E+00 -0.11013E+00  0.23991E-01  0.00000E+00 -0.11774E+00  0.43094E-01  0.00000E+00 -0.12320E+00  0.37165E-01  0.00000E+00 -0.12917E+00  0.39269E-01  0.00000E+00 -0.13476E+00
          0.38320E-01  0.00000E+00 -0.14060E+00  0.37943E-01  0.00000E+00 -0.14624E+00  0.37057E-01  0.00000E+00 -0.15152E+00  0.35904E-01  0.00000E+00 -0.15714E+00  0.34273E-01  0.00000E+00 -0.16397E+00  0.32722E-01  0.00000E+00 -0.16873E+00
          0.30400E-01  0.00000E+00 -0.17387E+00  0.29569E-01  0.00000E+00 -0.18395E+00  0.24566E-01  0.00000E+00 -0.18779E+00  0.25630E-01  0.00000E+00 -0.19041E+00  0.19459E-01  0.00000E+00 -0.20456E+00  0.20242E-01  0.00000E+00 -0.21134E+00
          0.98213E-01  0.00000E+00 -0.73746E-03  0.94945E-01  0.00000E+00 -0.58508E-02  0.11190E+00  0.00000E+00 -0.12006E-01  0.10301E+00  0.00000E+00 -0.16362E-01  0.75312E-01  0.00000E+00 -0.26820E-01  0.70368E-01  0.00000E+00 -0.29341E-01
          0.45128E-01  0.00000E+00 -0.43783E-01  0.53855E-01  0.00000E+00 -0.47405E-01  0.38486E-01  0.00000E+00 -0.59697E-01  0.53118E-01  0.00000E+00 -0.65556E-01  0.27844E-01  0.00000E+00 -0.79022E-01  0.79820E-01  0.00000E+00 -0.85317E-01
          0.28269E-02  0.00000E+00 -0.10493E+00  0.84695E-01  0.00000E+00 -0.11634E+00  0.39656E-01  0.00000E+00 -0.12466E+00  0.60469E-01  0.00000E+00 -0.13133E+00  0.53812E-01  0.00000E+00 -0.13813E+00  0.56035E-01  0.00000E+00 -0.14383E+00
          0.54314E-01  0.00000E+00 -0.15000E+00  0.53797E-01  0.00000E+00 -0.15598E+00  0.52574E-01  0.00000E+00 -0.16127E+00  0.51627E-01  0.00000E+00 -0.16677E+00  0.50019E-01  0.00000E+00 -0.17342E+00  0.48864E-01  0.00000E+00 -0.17769E+00
          0.46535E-01  0.00000E+00 -0.18262E+00  0.45091E-01  0.00000E+00 -0.19198E+00  0.42784E-01  0.00000E+00 -0.19384E+00  0.41006E-01  0.00000E+00 -0.19772E+00  0.37026E-01  0.00000E+00 -0.21141E+00  0.37253E-01  0.00000E+00 -0.21643E+00
          0.13783E+00  0.00000E+00  0.12538E-02  0.11622E+00  0.00000E+00 -0.92848E-02  0.12417E+00  0.00000E+00 -0.15829E-01  0.11798E+00  0.00000E+00 -0.20587E-01  0.10857E+00  0.00000E+00 -0.16383E-01  0.10659E+00  0.00000E+00 -0.25170E-01
          0.82805E-01  0.00000E+00 -0.38091E-01  0.88408E-01  0.00000E+00 -0.42533E-01  0.71305E-01  0.00000E+00 -0.55393E-01  0.93117E-01  0.00000E+00 -0.62448E-01  0.66624E-01  0.00000E+00 -0.78760E-01  0.12261E+00  0.00000E+00 -0.83723E-01
          0.40873E-01  0.00000E+00 -0.10987E+00  0.11848E+00  0.00000E+00 -0.11364E+00  0.59775E-01  0.00000E+00 -0.12794E+00  0.84441E-01  0.00000E+00 -0.13435E+00  0.72245E-01  0.00000E+00 -0.14110E+00  0.73895E-01  0.00000E+00 -0.14704E+00
          0.71384E-01  0.00000E+00 -0.15322E+00  0.70544E-01  0.00000E+00 -0.15909E+00  0.68538E-01  0.00000E+00 -0.16439E+00  0.67480E-01  0.00000E+00 -0.16998E+00  0.65209E-01  0.00000E+00 -0.17657E+00  0.63735E-01  0.00000E+00 -0.18053E+00
          0.61645E-01  0.00000E+00 -0.18554E+00  0.59528E-01  0.00000E+00 -0.19484E+00  0.58281E-01  0.00000E+00 -0.19590E+00  0.56114E-01  0.00000E+00 -0.19989E+00  0.56981E-01  0.00000E+00 -0.21254E+00  0.56082E-01  0.00000E+00 -0.21733E+00
          0.17048E+00  0.00000E+00 -0.28697E-02  0.15022E+00  0.00000E+00 -0.93934E-02  0.13236E+00  0.00000E+00 -0.16891E-01  0.14545E+00  0.00000E+00 -0.28059E-01  0.12833E+00  0.00000E+00 -0.23420E-01  0.14238E+00  0.00000E+00 -0.37585E-01
          0.11719E+00  0.00000E+00 -0.38286E-01  0.13514E+00  0.00000E+00 -0.48769E-01  0.11147E+00  0.00000E+00 -0.55725E-01  0.14095E+00  0.00000E+00 -0.68097E-01  0.10937E+00  0.00000E+00 -0.83187E-01  0.16730E+00  0.00000E+00 -0.87216E-01
          0.79609E-01  0.00000E+00 -0.11796E+00  0.14055E+00  0.00000E+00 -0.11343E+00  0.83270E-01  0.00000E+00 -0.12868E+00  0.10052E+00  0.00000E+00 -0.13320E+00  0.88716E-01  0.00000E+00 -0.13933E+00  0.89520E-01  0.00000E+00 -0.14419E+00
          0.86356E-01  0.00000E+00 -0.14986E+00  0.85310E-01  0.00000E+00 -0.15529E+00  0.83157E-01  0.00000E+00 -0.16010E+00  0.81965E-01  0.00000E+00 -0.16556E+00  0.79923E-01  0.00000E+00 -0.17213E+00  0.78386E-01  0.00000E+00 -0.17588E+00
          0.76813E-01  0.00000E+00 -0.18121E+00  0.75618E-01  0.00000E+00 -0.19097E+00  0.74054E-01  0.00000E+00 -0.19184E+00  0.73538E-01  0.00000E+00 -0.19619E+00  0.71796E-01  0.00000E+00 -0.20964E+00  0.72277E-01  0.00000E+00 -0.21437E+00
          0.19736E+00  0.00000E+00 -0.53701E-02  0.18103E+00  0.00000E+00 -0.10782E-01  0.15298E+00  0.00000E+00 -0.16079E-01  0.20305E+00  0.00000E+00 -0.35200E-01  0.18519E+00  0.00000E+00 -0.41707E-01  0.18500E+00  0.00000E+00 -0.50803E-01
          0.15615E+00  0.00000E+00 -0.59432E-01  0.17017E+00  0.00000E+00 -0.62476E-01  0.15690E+00  0.00000E+00 -0.73217E-01  0.19163E+00  0.00000E+00 -0.74814E-01  0.14505E+00  0.00000E+00 -0.10716E+00  0.18701E+00  0.00000E+00 -0.93768E-01
          0.10551E+00  0.00000E+00 -0.11617E+00  0.14599E+00  0.00000E+00 -0.10747E+00  0.10688E+00  0.00000E+00 -0.11910E+00  0.11335E+00  0.00000E+00 -0.12112E+00  0.10390E+00  0.00000E+00 -0.12771E+00  0.10436E+00  0.00000E+00 -0.13251E+00
          0.10112E+00  0.00000E+00 -0.13791E+00  0.10092E+00  0.00000E+00 -0.14362E+00  0.98614E-01  0.00000E+00 -0.14871E+00  0.98242E-01  0.00000E+00 -0.15465E+00  0.96448E-01  0.00000E+00 -0.16189E+00  0.95110E-01  0.00000E+00 -0.16578E+00
          0.94456E-01  0.00000E+00 -0.17186E+00  0.92992E-01  0.00000E+00 -0.18297E+00  0.92087E-01  0.00000E+00 -0.18308E+00  0.92324E-01  0.00000E+00 -0.18792E+00  0.92563E-01  0.00000E+00 -0.20273E+00  0.92382E-01  0.00000E+00 -0.20758E+00
          0.23188E+00  0.00000E+00 -0.48602E-02  0.24852E+00  0.00000E+00 -0.19319E-01  0.21742E+00  0.00000E+00 -0.22218E-01  0.23666E+00  0.00000E+00 -0.27285E-01  0.22097E+00  0.00000E+00 -0.31086E-01  0.25140E+00  0.00000E+00 -0.44944E-01
          0.21883E+00  0.00000E+00 -0.69784E-01  0.22083E+00  0.00000E+00 -0.70367E-01  0.18679E+00  0.00000E+00 -0.10417E+00  0.19648E+00  0.00000E+00 -0.96814E-01  0.19909E+00  0.00000E+00 -0.89020E-01  0.12461E+00  0.00000E+00 -0.10471E+00
          0.18702E+00  0.00000E+00 -0.90761E-01  0.11844E+00  0.00000E+00 -0.10961E+00  0.13347E+00  0.00000E+00 -0.11055E+00  0.12388E+00  0.00000E+00 -0.11459E+00  0.12135E+00  0.00000E+00 -0.12019E+00  0.12108E+00  0.00000E+00 -0.12500E+00
          0.11893E+00  0.00000E+00 -0.13027E+00  0.11952E+00  0.00000E+00 -0.13591E+00  0.11749E+00  0.00000E+00 -0.14091E+00  0.11789E+00  0.00000E+00 -0.14703E+00  0.11671E+00  0.00000E+00 -0.15431E+00  0.11542E+00  0.00000E+00 -0.15813E+00
          0.11525E+00  0.00000E+00 -0.16441E+00  0.11454E+00  0.00000E+00 -0.17612E+00  0.11289E+00  0.00000E+00 -0.17604E+00  0.11366E+00  0.00000E+00 -0.18075E+00  0.11234E+00  0.00000E+00 -0.19658E+00  0.11250E+00  0.00000E+00 -0.20192E+00
          0.27472E+00  0.00000E+00 -0.33154E-02  0.28956E+00  0.00000E+00 -0.11944E-01  0.26238E+00  0.00000E+00 -0.29187E-01  0.29542E+00  0.00000E+00 -0.35887E-01  0.28157E+00  0.00000E+00 -0.38074E-01  0.26279E+00  0.00000E+00 -0.48483E-01
          0.25250E+00  0.00000E+00 -0.50336E-01  0.22070E+00  0.00000E+00 -0.63365E-01  0.21882E+00  0.00000E+00 -0.60094E-01  0.18454E+00  0.00000E+00 -0.97358E-01  0.21686E+00  0.00000E+00 -0.80416E-01  0.12977E+00  0.00000E+00 -0.10940E+00
          0.19116E+00  0.00000E+00 -0.10090E+00  0.13716E+00  0.00000E+00 -0.11397E+00  0.14990E+00  0.00000E+00 -0.11276E+00  0.14146E+00  0.00000E+00 -0.11882E+00  0.13816E+00  0.00000E+00 -0.12515E+00  0.13819E+00  0.00000E+00 -0.12954E+00
          0.13683E+00  0.00000E+00 -0.13508E+00  0.13793E+00  0.00000E+00 -0.14078E+00  0.13651E+00  0.00000E+00 -0.14556E+00  0.13759E+00  0.00000E+00 -0.15154E+00  0.13719E+00  0.00000E+00 -0.15846E+00  0.13614E+00  0.00000E+00 -0.16197E+00
          0.13689E+00  0.00000E+00 -0.16810E+00  0.13645E+00  0.00000E+00 -0.17940E+00  0.13473E+00  0.00000E+00 -0.17864E+00  0.13602E+00  0.00000E+00 -0.18372E+00  0.13517E+00  0.00000E+00 -0.19928E+00  0.13477E+00  0.00000E+00 -0.20374E+00
          0.30532E+00  0.00000E+00 -0.46128E-02  0.32625E+00  0.00000E+00 -0.15659E-01  0.33598E+00  0.00000E+00 -0.14304E-01  0.34439E+00  0.00000E+00 -0.21595E-01  0.31681E+00  0.00000E+00 -0.51872E-01  0.30204E+00  0.00000E+00 -0.46262E-01
          0.28716E+00  0.00000E+00 -0.56846E-01  0.27212E+00  0.00000E+00 -0.78245E-01  0.25383E+00  0.00000E+00 -0.75264E-01  0.23880E+00  0.00000E+00 -0.10096E+00  0.24877E+00  0.00000E+00 -0.87604E-01  0.16177E+00  0.00000E+00 -0.12509E+00
          0.18172E+00  0.00000E+00 -0.10364E+00  0.16305E+00  0.00000E+00 -0.10938E+00  0.16009E+00  0.00000E+00 -0.11500E+00  0.16055E+00  0.00000E+00 -0.11926E+00  0.15658E+00  0.00000E+00 -0.12527E+00  0.15718E+00  0.00000E+00 -0.13090E+00
          0.15563E+00  0.00000E+00 -0.13688E+00  0.15673E+00  0.00000E+00 -0.14278E+00  0.15547E+00  0.00000E+00 -0.14799E+00  0.15675E+00  0.00000E+00 -0.15414E+00  0.15647E+00  0.00000E+00 -0.16107E+00  0.15583E+00  0.00000E+00 -0.16466E+00
          0.15679E+00  0.00000E+00 -0.17076E+00  0.15650E+00  0.00000E+00 -0.18166E+00  0.15503E+00  0.00000E+00 -0.18092E+00  0.15678E+00  0.00000E+00 -0.18593E+00  0.15552E+00  0.00000E+00 -0.20083E+00  0.15545E+00  0.00000E+00 -0.20525E+00
          0.34162E+00  0.00000E+00 -0.25486E-02  0.35794E+00  0.00000E+00 -0.14653E-01  0.37804E+00  0.00000E+00 -0.11182E-01  0.35196E+00  0.00000E+00 -0.28629E-01  0.38118E+00  0.00000E+00 -0.45884E-01  0.36485E+00  0.00000E+00 -0.42176E-01
          0.32723E+00  0.00000E+00 -0.63013E-01  0.31147E+00  0.00000E+00 -0.71405E-01  0.29206E+00  0.00000E+00 -0.76016E-01  0.27499E+00  0.00000E+00 -0.90642E-01  0.24654E+00  0.00000E+00 -0.99767E-01  0.22065E+00  0.00000E+00 -0.88793E-01
          0.14275E+00  0.00000E+00 -0.11464E+00  0.19836E+00  0.00000E+00 -0.11136E+00  0.17280E+00  0.00000E+00 -0.12111E+00  0.18040E+00  0.00000E+00 -0.12521E+00  0.17578E+00  0.00000E+00 -0.13011E+00  0.17652E+00  0.00000E+00 -0.13522E+00
          0.17478E+00  0.00000E+00 -0.14082E+00  0.17617E+00  0.00000E+00 -0.14615E+00  0.17484E+00  0.00000E+00 -0.15110E+00  0.17621E+00  0.00000E+00 -0.15706E+00  0.17620E+00  0.00000E+00 -0.16365E+00  0.17556E+00  0.00000E+00 -0.16715E+00
          0.17689E+00  0.00000E+00 -0.17317E+00  0.17690E+00  0.00000E+00 -0.18384E+00  0.17531E+00  0.00000E+00 -0.18307E+00  0.17767E+00  0.00000E+00 -0.18813E+00  0.17643E+00  0.00000E+00 -0.20277E+00  0.17628E+00  0.00000E+00 -0.20702E+00
          0.37256E+00  0.00000E+00 -0.83045E-03  0.39084E+00  0.00000E+00 -0.15174E-01  0.41290E+00  0.00000E+00 -0.18988E-01  0.39590E+00  0.00000E+00 -0.29464E-01  0.40926E+00  0.00000E+00 -0.35403E-01  0.39647E+00  0.00000E+00 -0.37642E-01
          0.37254E+00  0.00000E+00 -0.54387E-01  0.36075E+00  0.00000E+00 -0.56753E-01  0.32540E+00  0.00000E+00 -0.78413E-01  0.30614E+00  0.00000E+00 -0.92578E-01  0.27967E+00  0.00000E+00 -0.92422E-01  0.24000E+00  0.00000E+00 -0.95766E-01
          0.17624E+00  0.00000E+00 -0.12597E+00  0.20967E+00  0.00000E+00 -0.11562E+00  0.19201E+00  0.00000E+00 -0.12647E+00  0.19216E+00  0.00000E+00 -0.12958E+00  0.19148E+00  0.00000E+00 -0.13284E+00  0.19223E+00  0.00000E+00 -0.13807E+00
          0.19120E+00  0.00000E+00 -0.14330E+00  0.19309E+00  0.00000E+00 -0.14823E+00  0.19221E+00  0.00000E+00 -0.15319E+00  0.19416E+00  0.00000E+00 -0.15902E+00  0.19457E+00  0.00000E+00 -0.16551E+00  0.19432E+00  0.00000E+00 -0.16909E+00
          0.19618E+00  0.00000E+00 -0.17509E+00  0.19649E+00  0.00000E+00 -0.18552E+00  0.19496E+00  0.00000E+00 -0.18501E+00  0.19777E+00  0.00000E+00 -0.18992E+00  0.19637E+00  0.00000E+00 -0.20416E+00  0.19629E+00  0.00000E+00 -0.20849E+00
          0.41260E+00  0.00000E+00 -0.10180E-02  0.43213E+00  0.00000E+00 -0.14116E-01  0.44722E+00  0.00000E+00 -0.15672E-01  0.42588E+00  0.00000E+00 -0.25315E-01  0.44050E+00  0.00000E+00 -0.32861E-01  0.42817E+00  0.00000E+00 -0.36492E-01
          0.40797E+00  0.00000E+00 -0.50457E-01  0.39222E+00  0.00000E+00 -0.54118E-01  0.36740E+00  0.00000E+00 -0.67961E-01  0.34336E+00  0.00000E+00 -0.77561E-01  0.30364E+00  0.00000E+00 -0.89345E-01  0.27455E+00  0.00000E+00 -0.91603E-01
          0.21585E+00  0.00000E+00 -0.12939E+00  0.23120E+00  0.00000E+00 -0.11462E+00  0.20518E+00  0.00000E+00 -0.12856E+00  0.20518E+00  0.00000E+00 -0.13179E+00  0.20626E+00  0.00000E+00 -0.13434E+00  0.20840E+00  0.00000E+00 -0.13968E+00
          0.20828E+00  0.00000E+00 -0.14531E+00  0.21102E+00  0.00000E+00 -0.15014E+00  0.21064E+00  0.00000E+00 -0.15534E+00  0.21302E+00  0.00000E+00 -0.16135E+00  0.21377E+00  0.00000E+00 -0.16779E+00  0.21379E+00  0.00000E+00 -0.17152E+00
          0.21579E+00  0.00000E+00 -0.17757E+00  0.21618E+00  0.00000E+00 -0.18768E+00  0.21464E+00  0.00000E+00 -0.18729E+00  0.21756E+00  0.00000E+00 -0.19230E+00  0.21603E+00  0.00000E+00 -0.20601E+00  0.21592E+00  0.00000E+00 -0.21009E+00
          0.44945E+00  0.00000E+00 -0.63149E-03  0.46649E+00  0.00000E+00 -0.12702E-01  0.48048E+00  0.00000E+00 -0.14644E-01  0.45961E+00  0.00000E+00 -0.24065E-01  0.47274E+00  0.00000E+00 -0.30516E-01  0.45983E+00  0.00000E+00 -0.35461E-01
          0.44254E+00  0.00000E+00 -0.48132E-01  0.42759E+00  0.00000E+00 -0.52856E-01  0.40380E+00  0.00000E+00 -0.64199E-01  0.38094E+00  0.00000E+00 -0.75815E-01  0.34877E+00  0.00000E+00 -0.78186E-01  0.31395E+00  0.00000E+00 -0.87906E-01
          0.26220E+00  0.00000E+00 -0.12707E+00  0.25256E+00  0.00000E+00 -0.11471E+00  0.22087E+00  0.00000E+00 -0.12590E+00  0.21639E+00  0.00000E+00 -0.13229E+00  0.22120E+00  0.00000E+00 -0.13473E+00  0.22404E+00  0.00000E+00 -0.13958E+00
          0.22487E+00  0.00000E+00 -0.14564E+00  0.22862E+00  0.00000E+00 -0.15044E+00  0.22839E+00  0.00000E+00 -0.15556E+00  0.23120E+00  0.00000E+00 -0.16166E+00  0.23216E+00  0.00000E+00 -0.16805E+00  0.23215E+00  0.00000E+00 -0.17175E+00
          0.23443E+00  0.00000E+00 -0.17779E+00  0.23493E+00  0.00000E+00 -0.18772E+00  0.23319E+00  0.00000E+00 -0.18737E+00  0.23653E+00  0.00000E+00 -0.19228E+00  0.23487E+00  0.00000E+00 -0.20567E+00  0.23482E+00  0.00000E+00 -0.20986E+00
          0.48359E+00  0.00000E+00 -0.62256E-03  0.50061E+00  0.00000E+00 -0.12638E-01  0.51308E+00  0.00000E+00 -0.14065E-01  0.49148E+00  0.00000E+00 -0.23528E-01  0.50319E+00  0.00000E+00 -0.29691E-01  0.49053E+00  0.00000E+00 -0.34539E-01
          0.47481E+00  0.00000E+00 -0.45469E-01  0.46050E+00  0.00000E+00 -0.51245E-01  0.44022E+00  0.00000E+00 -0.61393E-01  0.41763E+00  0.00000E+00 -0.71860E-01  0.38924E+00  0.00000E+00 -0.81244E-01  0.35583E+00  0.00000E+00 -0.85072E-01
          0.32153E+00  0.00000E+00 -0.10805E+00  0.27399E+00  0.00000E+00 -0.11737E+00  0.23935E+00  0.00000E+00 -0.12240E+00  0.23320E+00  0.00000E+00 -0.13105E+00  0.23732E+00  0.00000E+00 -0.13569E+00  0.24044E+00  0.00000E+00 -0.13944E+00
          0.24207E+00  0.00000E+00 -0.14558E+00  0.24680E+00  0.00000E+00 -0.15080E+00  0.24686E+00  0.00000E+00 -0.15564E+00  0.25012E+00  0.00000E+00 -0.16182E+00  0.25134E+00  0.00000E+00 -0.16826E+00  0.25133E+00  0.00000E+00 -0.17200E+00
          0.25374E+00  0.00000E+00 -0.17812E+00  0.25427E+00  0.00000E+00 -0.18794E+00  0.25221E+00  0.00000E+00 -0.18769E+00  0.25563E+00  0.00000E+00 -0.19261E+00  0.25378E+00  0.00000E+00 -0.20581E+00  0.25365E+00  0.00000E+00 -0.20989E+00
          0.51864E+00  0.00000E+00 -0.64443E-03  0.53525E+00  0.00000E+00 -0.12559E-01  0.54534E+00  0.00000E+00 -0.13342E-01  0.52178E+00  0.00000E+00 -0.22475E-01  0.53351E+00  0.00000E+00 -0.29758E-01  0.52041E+00  0.00000E+00 -0.33743E-01
          0.50557E+00  0.00000E+00 -0.43895E-01  0.49232E+00  0.00000E+00 -0.50189E-01  0.47493E+00  0.00000E+00 -0.59139E-01  0.45372E+00  0.00000E+00 -0.68015E-01  0.42849E+00  0.00000E+00 -0.78476E-01  0.39351E+00  0.00000E+00 -0.87387E-01
          0.36439E+00  0.00000E+00 -0.98024E-01  0.32267E+00  0.00000E+00 -0.11102E+00  0.26939E+00  0.00000E+00 -0.12534E+00  0.25299E+00  0.00000E+00 -0.13057E+00  0.25462E+00  0.00000E+00 -0.13956E+00  0.25748E+00  0.00000E+00 -0.14301E+00
          0.25920E+00  0.00000E+00 -0.14765E+00  0.26484E+00  0.00000E+00 -0.15326E+00  0.26518E+00  0.00000E+00 -0.15789E+00  0.26885E+00  0.00000E+00 -0.16349E+00  0.27033E+00  0.00000E+00 -0.16968E+00  0.27022E+00  0.00000E+00 -0.17324E+00
          0.27270E+00  0.00000E+00 -0.17913E+00  0.27319E+00  0.00000E+00 -0.18856E+00  0.27075E+00  0.00000E+00 -0.18816E+00  0.27425E+00  0.00000E+00 -0.19303E+00  0.27221E+00  0.00000E+00 -0.20579E+00  0.27200E+00  0.00000E+00 -0.20971E+00
          0.55410E+00  0.00000E+00 -0.66254E-03  0.56908E+00  0.00000E+00 -0.11588E-01  0.57930E+00  0.00000E+00 -0.12744E-01  0.55158E+00  0.00000E+00 -0.19830E-01  0.56853E+00  0.00000E+00 -0.32296E-01  0.55208E+00  0.00000E+00 -0.33590E-01
          0.53610E+00  0.00000E+00 -0.44008E-01  0.52387E+00  0.00000E+00 -0.50195E-01  0.50823E+00  0.00000E+00 -0.58002E-01  0.48892E+00  0.00000E+00 -0.66014E-01  0.46551E+00  0.00000E+00 -0.75173E-01  0.43317E+00  0.00000E+00 -0.86672E-01
          0.40227E+00  0.00000E+00 -0.94179E-01  0.36719E+00  0.00000E+00 -0.10308E+00  0.31498E+00  0.00000E+00 -0.12690E+00  0.27986E+00  0.00000E+00 -0.13155E+00  0.27355E+00  0.00000E+00 -0.13992E+00  0.27432E+00  0.00000E+00 -0.14676E+00
          0.27541E+00  0.00000E+00 -0.15024E+00  0.28157E+00  0.00000E+00 -0.15492E+00  0.28217E+00  0.00000E+00 -0.15996E+00  0.28637E+00  0.00000E+00 -0.16506E+00  0.28813E+00  0.00000E+00 -0.17073E+00  0.28807E+00  0.00000E+00 -0.17417E+00
          0.29084E+00  0.00000E+00 -0.17985E+00  0.29142E+00  0.00000E+00 -0.18888E+00  0.28867E+00  0.00000E+00 -0.18833E+00  0.29247E+00  0.00000E+00 -0.19316E+00  0.29031E+00  0.00000E+00 -0.20560E+00  0.29004E+00  0.00000E+00 -0.20935E+00
          0.58436E+00  0.00000E+00 -0.90814E-03  0.60158E+00  0.00000E+00 -0.12221E-01  0.61615E+00  0.00000E+00 -0.13356E-01  0.58531E+00  0.00000E+00 -0.16801E-01  0.61001E+00  0.00000E+00 -0.32784E-01  0.58753E+00  0.00000E+00 -0.35203E-01