<?xml version="1.0"?>
<VTKFile type="UnstructuredGrid" version="0.1" byte_order="LittleEndian" compressor="vtkZLibDataCompressor">
<UnstructuredGrid>
  <Piece NumberOfPoints="1800"        NumberOfCells="1"      >
    <Points>
      <DataArray type="Float32" NumberOfComponents="3" format="ascii" >
        0.56301E-01  0.00000E+00  0.24928E-02  0.38113E-01  0.00000E+00  0.30593E-02  0.19767E-01  0.00000E+00  0.37023E-02  0.28067E-01  0.00000E+00  0.88459E-02  0.76641E-02  0.00000E+00  0.63903E-02  0.15510E-01  0.00000E+00  0.12532E-01
        0.61465E-02  0.00000E+00  0.15959E-01  0.16213E-01  0.00000E+00  0.20766E-01  0.71815E-02  0.00000E+00  0.24636E-01  0.13311E-01  0.00000E+00  0.29734E-01  0.67369E-02  0.00000E+00  0.34986E-01  0.13826E-01  0.00000E+00  0.40159E-01
        0.69276E-02  0.00000E+00  0.44961E-01  0.14826E-01  0.00000E+00  0.49494E-01  0.67180E-02  0.00000E+00  0.54960E-01  0.15831E-01  0.00000E+00  0.58017E-01  0.10339E-01  0.00000E+00  0.63186E-01  0.15270E-01  0.00000E+00  0.67352E-01
        0.13002E-01  0.00000E+00  0.72181E-01  0.13511E-01  0.00000E+00  0.76909E-01  0.12787E-01  0.00000E+00  0.81156E-01  0.12790E-01  0.00000E+00  0.85918E-01  0.12677E-01  0.00000E+00  0.90624E-01  0.12031E-01  0.00000E+00  0.94993E-01
        0.10903E-01  0.00000E+00  0.99373E-01  0.10502E-01  0.00000E+00  0.10460E+00  0.11129E-01  0.00000E+00  0.11007E+00  0.10271E-01  0.00000E+00  0.11476E+00  0.76441E-02  0.00000E+00  0.11859E+00  0.78795E-02  0.00000E+00  0.12201E+00
        0.73983E-01  0.00000E+00  0.31695E-02  0.47208E-01  0.00000E+00  0.87745E-02  0.64898E-01  0.00000E+00  0.92472E-02  0.56123E-01  0.00000E+00  0.14126E-01  0.37098E-01  0.00000E+00  0.13991E-01  0.46718E-01  0.00000E+00  0.19217E-01
        0.26251E-01  0.00000E+00  0.17906E-01  0.39234E-01  0.00000E+00  0.24212E-01  0.27235E-01  0.00000E+00  0.25969E-01  0.40048E-01  0.00000E+00  0.31704E-01  0.24236E-01  0.00000E+00  0.33155E-01  0.37098E-01  0.00000E+00  0.38410E-01
        0.24803E-01  0.00000E+00  0.41482E-01  0.38136E-01  0.00000E+00  0.45932E-01  0.25976E-01  0.00000E+00  0.49704E-01  0.39064E-01  0.00000E+00  0.53615E-01  0.26867E-01  0.00000E+00  0.58120E-01  0.39646E-01  0.00000E+00  0.61706E-01
        0.28182E-01  0.00000E+00  0.66386E-01  0.38842E-01  0.00000E+00  0.70186E-01  0.30874E-01  0.00000E+00  0.74448E-01  0.35453E-01  0.00000E+00  0.80083E-01  0.30817E-01  0.00000E+00  0.84832E-01  0.33525E-01  0.00000E+00  0.90513E-01
        0.29344E-01  0.00000E+00  0.95374E-01  0.33529E-01  0.00000E+00  0.10035E+00  0.27769E-01  0.00000E+00  0.10519E+00  0.30595E-01  0.00000E+00  0.11225E+00  0.27587E-01  0.00000E+00  0.11508E+00  0.28254E-01  0.00000E+00  0.11917E+00
        0.94065E-01  0.00000E+00  0.32289E-02  0.83227E-01  0.00000E+00  0.85107E-02  0.10476E+00  0.00000E+00  0.81093E-02  0.92954E-01  0.00000E+00  0.13203E-01  0.73595E-01  0.00000E+00  0.14822E-01  0.83396E-01  0.00000E+00  0.19019E-01
        0.63443E-01  0.00000E+00  0.21181E-01  0.74048E-01  0.00000E+00  0.24777E-01  0.54369E-01  0.00000E+00  0.26059E-01  0.66191E-01  0.00000E+00  0.30698E-01  0.52065E-01  0.00000E+00  0.33671E-01  0.64242E-01  0.00000E+00  0.38221E-01
        0.50088E-01  0.00000E+00  0.41297E-01  0.63184E-01  0.00000E+00  0.45627E-01  0.51062E-01  0.00000E+00  0.49327E-01  0.63575E-01  0.00000E+00  0.53584E-01  0.51112E-01  0.00000E+00  0.57491E-01  0.63654E-01  0.00000E+00  0.62002E-01
        0.51288E-01  0.00000E+00  0.65782E-01  0.62044E-01  0.00000E+00  0.70473E-01  0.51551E-01  0.00000E+00  0.74152E-01  0.58984E-01  0.00000E+00  0.79863E-01  0.50140E-01  0.00000E+00  0.83070E-01  0.55628E-01  0.00000E+00  0.88785E-01
        0.50029E-01  0.00000E+00  0.92984E-01  0.51283E-01  0.00000E+00  0.98618E-01  0.48953E-01  0.00000E+00  0.10440E+00  0.48895E-01  0.00000E+00  0.11105E+00  0.46549E-01  0.00000E+00  0.11439E+00  0.47099E-01  0.00000E+00  0.11866E+00
        0.13696E+00  0.00000E+00  0.31940E-02  0.11536E+00  0.00000E+00  0.53612E-02  0.12712E+00  0.00000E+00  0.83902E-02  0.11913E+00  0.00000E+00  0.14635E-01  0.10524E+00  0.00000E+00  0.16983E-01  0.11351E+00  0.00000E+00  0.22171E-01
        0.95396E-01  0.00000E+00  0.22233E-01  0.10469E+00  0.00000E+00  0.27733E-01  0.86399E-01  0.00000E+00  0.28041E-01  0.96337E-01  0.00000E+00  0.33146E-01  0.78825E-01  0.00000E+00  0.33806E-01  0.90808E-01  0.00000E+00  0.39444E-01
        0.76946E-01  0.00000E+00  0.41491E-01  0.89620E-01  0.00000E+00  0.46662E-01  0.75953E-01  0.00000E+00  0.48898E-01  0.88553E-01  0.00000E+00  0.54290E-01  0.75412E-01  0.00000E+00  0.56859E-01  0.87231E-01  0.00000E+00  0.62501E-01
        0.75005E-01  0.00000E+00  0.65131E-01  0.85041E-01  0.00000E+00  0.71299E-01  0.73456E-01  0.00000E+00  0.73717E-01  0.81926E-01  0.00000E+00  0.79804E-01  0.72231E-01  0.00000E+00  0.82519E-01  0.76988E-01  0.00000E+00  0.88580E-01
        0.72593E-01  0.00000E+00  0.93227E-01  0.69471E-01  0.00000E+00  0.97774E-01  0.69138E-01  0.00000E+00  0.10368E+00  0.67340E-01  0.00000E+00  0.11035E+00  0.68088E-01  0.00000E+00  0.11359E+00  0.67245E-01  0.00000E+00  0.11768E+00
        0.17162E+00  0.00000E+00  0.32444E-02  0.15377E+00  0.00000E+00  0.53954E-02  0.14325E+00  0.00000E+00  0.10785E-01  0.15463E+00  0.00000E+00  0.15046E-01  0.13433E+00  0.00000E+00  0.16267E-01  0.14626E+00  0.00000E+00  0.20787E-01
        0.12638E+00  0.00000E+00  0.22174E-01  0.13738E+00  0.00000E+00  0.25705E-01  0.11942E+00  0.00000E+00  0.29630E-01  0.13037E+00  0.00000E+00  0.32778E-01  0.11091E+00  0.00000E+00  0.35610E-01  0.12272E+00  0.00000E+00  0.39375E-01
        0.10486E+00  0.00000E+00  0.41485E-01  0.11806E+00  0.00000E+00  0.46100E-01  0.10301E+00  0.00000E+00  0.48482E-01  0.11511E+00  0.00000E+00  0.53410E-01  0.10074E+00  0.00000E+00  0.55709E-01  0.11132E+00  0.00000E+00  0.61298E-01
        0.98660E-01  0.00000E+00  0.63780E-01  0.10756E+00  0.00000E+00  0.70390E-01  0.96189E-01  0.00000E+00  0.72786E-01  0.10372E+00  0.00000E+00  0.79223E-01  0.95212E-01  0.00000E+00  0.82116E-01  0.97174E-01  0.00000E+00  0.88915E-01
        0.92650E-01  0.00000E+00  0.92785E-01  0.90966E-01  0.00000E+00  0.98214E-01  0.88517E-01  0.00000E+00  0.10376E+00  0.88329E-01  0.00000E+00  0.11024E+00  0.87023E-01  0.00000E+00  0.11330E+00  0.87327E-01  0.00000E+00  0.11747E+00
        0.19346E+00  0.00000E+00  0.31933E-02  0.18271E+00  0.00000E+00  0.76867E-02  0.16463E+00  0.00000E+00  0.10305E-01  0.19715E+00  0.00000E+00  0.12322E-01  0.17456E+00  0.00000E+00  0.14703E-01  0.18710E+00  0.00000E+00  0.16596E-01
        0.16395E+00  0.00000E+00  0.20314E-01  0.16966E+00  0.00000E+00  0.27119E-01  0.15364E+00  0.00000E+00  0.26638E-01  0.16027E+00  0.00000E+00  0.32111E-01  0.14372E+00  0.00000E+00  0.32911E-01  0.15010E+00  0.00000E+00  0.39048E-01
        0.13605E+00  0.00000E+00  0.40856E-01  0.14439E+00  0.00000E+00  0.47012E-01  0.13118E+00  0.00000E+00  0.48095E-01  0.14204E+00  0.00000E+00  0.55021E-01  0.12732E+00  0.00000E+00  0.55152E-01  0.13566E+00  0.00000E+00  0.61660E-01
        0.12238E+00  0.00000E+00  0.62859E-01  0.12965E+00  0.00000E+00  0.70373E-01  0.11773E+00  0.00000E+00  0.72056E-01  0.12539E+00  0.00000E+00  0.78588E-01  0.11724E+00  0.00000E+00  0.81392E-01  0.11634E+00  0.00000E+00  0.88254E-01
        0.11524E+00  0.00000E+00  0.93090E-01  0.11064E+00  0.00000E+00  0.96612E-01  0.10929E+00  0.00000E+00  0.10317E+00  0.10870E+00  0.00000E+00  0.10959E+00  0.10852E+00  0.00000E+00  0.11236E+00  0.10812E+00  0.00000E+00  0.11657E+00
        0.22137E+00  0.00000E+00  0.30957E-02  0.23772E+00  0.00000E+00  0.62732E-02  0.20714E+00  0.00000E+00  0.64950E-02  0.22891E+00  0.00000E+00  0.10985E-01  0.21471E+00  0.00000E+00  0.12484E-01  0.22244E+00  0.00000E+00  0.18024E-01
        0.20573E+00  0.00000E+00  0.18590E-01  0.19523E+00  0.00000E+00  0.22413E-01  0.17980E+00  0.00000E+00  0.22540E-01  0.18163E+00  0.00000E+00  0.30651E-01  0.17559E+00  0.00000E+00  0.37585E-01  0.16590E+00  0.00000E+00  0.39320E-01
        0.17497E+00  0.00000E+00  0.46625E-01  0.15849E+00  0.00000E+00  0.44766E-01  0.16768E+00  0.00000E+00  0.53082E-01  0.15557E+00  0.00000E+00  0.52128E-01  0.15618E+00  0.00000E+00  0.59216E-01  0.15654E+00  0.00000E+00  0.66675E-01
        0.14469E+00  0.00000E+00  0.65414E-01  0.15194E+00  0.00000E+00  0.74358E-01  0.13901E+00  0.00000E+00  0.73764E-01  0.14721E+00  0.00000E+00  0.80889E-01  0.13941E+00  0.00000E+00  0.83244E-01  0.13465E+00  0.00000E+00  0.88861E-01
        0.13604E+00  0.00000E+00  0.93869E-01  0.13282E+00  0.00000E+00  0.98109E-01  0.12937E+00  0.00000E+00  0.10403E+00  0.13062E+00  0.00000E+00  0.11024E+00  0.12933E+00  0.00000E+00  0.11301E+00  0.12941E+00  0.00000E+00  0.11715E+00
        0.25062E+00  0.00000E+00  0.32802E-02  0.26281E+00  0.00000E+00  0.73025E-02  0.24996E+00  0.00000E+00  0.12425E-01  0.27384E+00  0.00000E+00  0.12291E-01  0.25973E+00  0.00000E+00  0.15910E-01  0.24096E+00  0.00000E+00  0.16367E-01
        0.23390E+00  0.00000E+00  0.21800E-01  0.21643E+00  0.00000E+00  0.25097E-01  0.20668E+00  0.00000E+00  0.27766E-01  0.19373E+00  0.00000E+00  0.30394E-01  0.20248E+00  0.00000E+00  0.36270E-01  0.18878E+00  0.00000E+00  0.38225E-01
        0.19986E+00  0.00000E+00  0.44590E-01  0.18628E+00  0.00000E+00  0.46246E-01  0.19558E+00  0.00000E+00  0.52286E-01  0.18496E+00  0.00000E+00  0.54796E-01  0.17523E+00  0.00000E+00  0.58173E-01  0.18174E+00  0.00000E+00  0.65230E-01
        0.16844E+00  0.00000E+00  0.65380E-01  0.17610E+00  0.00000E+00  0.72875E-01  0.16410E+00  0.00000E+00  0.74434E-01  0.17154E+00  0.00000E+00  0.80825E-01  0.16498E+00  0.00000E+00  0.84649E-01  0.15685E+00  0.00000E+00  0.87515E-01
        0.16029E+00  0.00000E+00  0.93158E-01  0.15574E+00  0.00000E+00  0.97142E-01  0.15186E+00  0.00000E+00  0.10270E+00  0.15397E+00  0.00000E+00  0.10854E+00  0.15211E+00  0.00000E+00  0.11157E+00  0.15189E+00  0.00000E+00  0.11554E+00
[...]
<PointData>
      <DataArray type="Float32" Name="Velocity vectors"  NumberOfComponents="3"  format="ascii" >
          0.98975E-01  0.00000E+00  0.43877E-03  0.70203E-01  0.00000E+00 -0.21959E-02  0.29468E-01  0.00000E+00 -0.19464E-02  0.59527E-01  0.00000E+00 -0.16980E-01  0.12720E-01  0.00000E+00 -0.15185E-01  0.37411E-01  0.00000E+00 -0.17069E-01
         -0.71014E-02  0.00000E+00 -0.35860E-01  0.29377E-01  0.00000E+00 -0.31385E-01 -0.24187E-02  0.00000E+00 -0.47391E-01  0.39487E-01  0.00000E+00 -0.63868E-01 -0.26899E-02  0.00000E+00 -0.73381E-01  0.30502E-01  0.00000E+00 -0.77770E-01
         -0.44369E-02  0.00000E+00 -0.94471E-01  0.28246E-01  0.00000E+00 -0.10161E+00 -0.11289E-01  0.00000E+00 -0.10488E+00  0.29836E-01  0.00000E+00 -0.12177E+00 -0.25423E-01  0.00000E+00 -0.11861E+00  0.34132E-01  0.00000E+00 -0.14133E+00
         -0.10988E-01  0.00000E+00 -0.13848E+00  0.75789E-02  0.00000E+00 -0.12951E+00 -0.22480E-02  0.00000E+00 -0.13320E+00  0.57460E-02  0.00000E+00 -0.13201E+00  0.80782E-02  0.00000E+00 -0.13257E+00  0.48016E-02  0.00000E+00 -0.13420E+00
          0.26165E-04  0.00000E+00 -0.13392E+00  0.51579E-02  0.00000E+00 -0.13074E+00  0.90685E-02  0.00000E+00 -0.13198E+00  0.66788E-02  0.00000E+00 -0.13944E+00  0.35851E-02  0.00000E+00 -0.14170E+00  0.33799E-02  0.00000E+00 -0.14243E+00
          0.12411E+00  0.00000E+00 -0.11406E-02  0.84293E-01  0.00000E+00 -0.10844E-01  0.11134E+00  0.00000E+00 -0.10866E-01  0.95651E-01  0.00000E+00 -0.17637E-01  0.74252E-01  0.00000E+00 -0.14415E-01  0.84583E-01  0.00000E+00 -0.18167E-01
          0.36746E-01  0.00000E+00 -0.33225E-01  0.53752E-01  0.00000E+00 -0.39854E-01  0.61583E-01  0.00000E+00 -0.45439E-01  0.74620E-01  0.00000E+00 -0.38028E-01  0.31018E-01  0.00000E+00 -0.59418E-01  0.46759E-01  0.00000E+00 -0.53399E-01
          0.38594E-01  0.00000E+00 -0.65022E-01  0.54711E-01  0.00000E+00 -0.60786E-01  0.41331E-01  0.00000E+00 -0.74014E-01  0.50217E-01  0.00000E+00 -0.63323E-01  0.32786E-01  0.00000E+00 -0.82800E-01  0.44479E-01  0.00000E+00 -0.75568E-01
          0.94121E-02  0.00000E+00 -0.82774E-01  0.48321E-01  0.00000E+00 -0.85878E-01 -0.10103E-01  0.00000E+00 -0.10418E+00  0.49246E-01  0.00000E+00 -0.10946E+00 -0.20794E-01  0.00000E+00 -0.12166E+00  0.34895E-01  0.00000E+00 -0.12187E+00
         -0.71779E-02  0.00000E+00 -0.13289E+00  0.35107E-01  0.00000E+00 -0.13352E+00  0.49760E-02  0.00000E+00 -0.14702E+00  0.24830E-01  0.00000E+00 -0.14551E+00  0.14266E-01  0.00000E+00 -0.15000E+00  0.16390E-01  0.00000E+00 -0.14967E+00
          0.14207E+00  0.00000E+00  0.25517E-03  0.13603E+00  0.00000E+00 -0.61720E-02  0.15199E+00  0.00000E+00 -0.74595E-02  0.14455E+00  0.00000E+00 -0.72512E-02  0.12208E+00  0.00000E+00 -0.17012E-01  0.13044E+00  0.00000E+00 -0.18579E-01
          0.11117E+00  0.00000E+00 -0.25257E-01  0.11641E+00  0.00000E+00 -0.24075E-01  0.90766E-01  0.00000E+00 -0.39286E-01  0.91506E-01  0.00000E+00 -0.35570E-01  0.77251E-01  0.00000E+00 -0.46100E-01  0.76446E-01  0.00000E+00 -0.42448E-01
          0.58195E-01  0.00000E+00 -0.53367E-01  0.68619E-01  0.00000E+00 -0.48233E-01  0.66754E-01  0.00000E+00 -0.58741E-01  0.67864E-01  0.00000E+00 -0.52966E-01  0.58326E-01  0.00000E+00 -0.64704E-01  0.65183E-01  0.00000E+00 -0.60181E-01
          0.43861E-01  0.00000E+00 -0.70780E-01  0.68511E-01  0.00000E+00 -0.66646E-01  0.27194E-01  0.00000E+00 -0.79935E-01  0.76203E-01  0.00000E+00 -0.81246E-01  0.12092E-01  0.00000E+00 -0.10281E+00  0.73335E-01  0.00000E+00 -0.10710E+00
          0.16629E-01  0.00000E+00 -0.13007E+00  0.45127E-01  0.00000E+00 -0.12157E+00  0.20513E-01  0.00000E+00 -0.12747E+00  0.27270E-01  0.00000E+00 -0.12926E+00  0.15028E-01  0.00000E+00 -0.13110E+00  0.21165E-01  0.00000E+00 -0.13175E+00
          0.18258E+00  0.00000E+00 -0.78072E-03  0.15570E+00  0.00000E+00 -0.11588E-02  0.16737E+00  0.00000E+00 -0.97593E-02  0.15894E+00  0.00000E+00 -0.11063E-01  0.14510E+00  0.00000E+00 -0.73767E-02  0.15368E+00  0.00000E+00 -0.14938E-01
          0.13715E+00  0.00000E+00 -0.10987E-01  0.14610E+00  0.00000E+00 -0.19085E-01  0.12543E+00  0.00000E+00 -0.21262E-01  0.13188E+00  0.00000E+00 -0.23290E-01  0.10023E+00  0.00000E+00 -0.39430E-01  0.96159E-01  0.00000E+00 -0.39077E-01
          0.84105E-01  0.00000E+00 -0.43368E-01  0.94160E-01  0.00000E+00 -0.43359E-01  0.81446E-01  0.00000E+00 -0.51564E-01  0.85743E-01  0.00000E+00 -0.53905E-01  0.78582E-01  0.00000E+00 -0.59391E-01  0.82777E-01  0.00000E+00 -0.56396E-01
          0.71397E-01  0.00000E+00 -0.65081E-01  0.86754E-01  0.00000E+00 -0.61290E-01  0.58163E-01  0.00000E+00 -0.78224E-01  0.98090E-01  0.00000E+00 -0.71445E-01  0.42602E-01  0.00000E+00 -0.87328E-01  0.10147E+00  0.00000E+00 -0.96300E-01
          0.65156E-01  0.00000E+00 -0.10619E+00  0.31863E-01  0.00000E+00 -0.10983E+00  0.36062E-01  0.00000E+00 -0.11469E+00  0.24999E-01  0.00000E+00 -0.11618E+00  0.31038E-01  0.00000E+00 -0.11712E+00  0.28078E-01  0.00000E+00 -0.11898E+00
          0.23858E+00  0.00000E+00 -0.26271E-03  0.20805E+00  0.00000E+00 -0.39985E-02  0.20662E+00  0.00000E+00 -0.13164E-01  0.21420E+00  0.00000E+00 -0.64253E-02  0.17987E+00  0.00000E+00 -0.29696E-01  0.18926E+00  0.00000E+00 -0.23358E-01
          0.16964E+00  0.00000E+00 -0.25624E-01  0.17859E+00  0.00000E+00 -0.37584E-01  0.16215E+00  0.00000E+00 -0.29505E-01  0.17477E+00  0.00000E+00 -0.43117E-01  0.15509E+00  0.00000E+00 -0.28405E-01  0.16781E+00  0.00000E+00 -0.41795E-01
          0.11835E+00  0.00000E+00 -0.47932E-01  0.13240E+00  0.00000E+00 -0.53981E-01  0.11135E+00  0.00000E+00 -0.50716E-01  0.11806E+00  0.00000E+00 -0.64601E-01  0.99609E-01  0.00000E+00 -0.62720E-01  0.10636E+00  0.00000E+00 -0.72559E-01
          0.93855E-01  0.00000E+00 -0.69169E-01  0.10882E+00  0.00000E+00 -0.73065E-01  0.88162E-01  0.00000E+00 -0.85220E-01  0.12702E+00  0.00000E+00 -0.80329E-01  0.79756E-01  0.00000E+00 -0.96146E-01  0.11441E+00  0.00000E+00 -0.91909E-01
          0.68422E-01  0.00000E+00 -0.11130E+00  0.57627E-01  0.00000E+00 -0.10059E+00  0.38575E-01  0.00000E+00 -0.11105E+00  0.43043E-01  0.00000E+00 -0.11267E+00  0.35366E-01  0.00000E+00 -0.11481E+00  0.37939E-01  0.00000E+00 -0.11577E+00
          0.25016E+00  0.00000E+00  0.29976E-03  0.24676E+00  0.00000E+00 -0.41576E-02  0.21434E+00  0.00000E+00 -0.15151E-01  0.27052E+00  0.00000E+00 -0.90720E-02  0.22622E+00  0.00000E+00 -0.16966E-01  0.25297E+00  0.00000E+00 -0.18180E-01
          0.22326E+00  0.00000E+00 -0.16600E-01  0.24423E+00  0.00000E+00 -0.27047E-01  0.20712E+00  0.00000E+00 -0.32181E-01  0.22254E+00  0.00000E+00 -0.43444E-01  0.18999E+00  0.00000E+00 -0.46317E-01  0.20657E+00  0.00000E+00 -0.57686E-01
          0.18110E+00  0.00000E+00 -0.52412E-01  0.17914E+00  0.00000E+00 -0.68946E-01  0.15890E+00  0.00000E+00 -0.63346E-01  0.16966E+00  0.00000E+00 -0.71433E-01  0.13826E+00  0.00000E+00 -0.78304E-01  0.14423E+00  0.00000E+00 -0.87679E-01
          0.12745E+00  0.00000E+00 -0.90352E-01  0.13332E+00  0.00000E+00 -0.94726E-01  0.11547E+00  0.00000E+00 -0.10355E+00  0.14057E+00  0.00000E+00 -0.10065E+00  0.10697E+00  0.00000E+00 -0.11311E+00  0.10731E+00  0.00000E+00 -0.10340E+00
          0.98077E-01  0.00000E+00 -0.10980E+00  0.62049E-01  0.00000E+00 -0.12780E+00  0.57622E-01  0.00000E+00 -0.11573E+00  0.54648E-01  0.00000E+00 -0.12191E+00  0.53850E-01  0.00000E+00 -0.12522E+00  0.52186E-01  0.00000E+00 -0.12507E+00
          0.30094E+00  0.00000E+00 -0.44977E-03  0.33313E+00  0.00000E+00 -0.59168E-02  0.27049E+00  0.00000E+00 -0.86625E-02  0.32022E+00  0.00000E+00 -0.16564E-01  0.29707E+00  0.00000E+00 -0.21222E-01  0.30709E+00  0.00000E+00 -0.22534E-01
          0.28495E+00  0.00000E+00 -0.27277E-01  0.26400E+00  0.00000E+00 -0.28174E-01  0.24098E+00  0.00000E+00 -0.31609E-01  0.25787E+00  0.00000E+00 -0.33825E-01  0.23589E+00  0.00000E+00 -0.45234E-01  0.23454E+00  0.00000E+00 -0.43399E-01
          0.22192E+00  0.00000E+00 -0.41690E-01  0.20776E+00  0.00000E+00 -0.68830E-01  0.18368E+00  0.00000E+00 -0.62470E-01  0.17075E+00  0.00000E+00 -0.77456E-01  0.17733E+00  0.00000E+00 -0.75178E-01  0.17816E+00  0.00000E+00 -0.74787E-01
          0.16425E+00  0.00000E+00 -0.96875E-01  0.15793E+00  0.00000E+00 -0.93994E-01  0.13796E+00  0.00000E+00 -0.11405E+00  0.14523E+00  0.00000E+00 -0.99081E-01  0.13591E+00  0.00000E+00 -0.11830E+00  0.93060E-01  0.00000E+00 -0.13320E+00
          0.11486E+00  0.00000E+00 -0.12100E+00  0.10166E+00  0.00000E+00 -0.13216E+00  0.65160E-01  0.00000E+00 -0.13948E+00  0.78869E-01  0.00000E+00 -0.14329E+00  0.67082E-01  0.00000E+00 -0.14307E+00  0.68606E-01  0.00000E+00 -0.14400E+00
          0.34635E+00  0.00000E+00 -0.78422E-03  0.35396E+00  0.00000E+00 -0.62046E-02  0.33774E+00  0.00000E+00 -0.37967E-02  0.35824E+00  0.00000E+00 -0.59858E-02  0.34294E+00  0.00000E+00 -0.14490E-01  0.32412E+00  0.00000E+00 -0.13855E-01
          0.30917E+00  0.00000E+00 -0.22607E-01  0.27925E+00  0.00000E+00 -0.34232E-01  0.27094E+00  0.00000E+00 -0.34530E-01  0.25466E+00  0.00000E+00 -0.33054E-01  0.26323E+00  0.00000E+00 -0.45587E-01  0.25035E+00  0.00000E+00 -0.37866E-01
          0.25559E+00  0.00000E+00 -0.46297E-01  0.22734E+00  0.00000E+00 -0.48378E-01  0.23290E+00  0.00000E+00 -0.61624E-01  0.22470E+00  0.00000E+00 -0.53063E-01  0.19554E+00  0.00000E+00 -0.70977E-01  0.21459E+00  0.00000E+00 -0.74185E-01
          0.18506E+00  0.00000E+00 -0.86354E-01  0.19309E+00  0.00000E+00 -0.91881E-01  0.17660E+00  0.00000E+00 -0.96924E-01  0.18522E+00  0.00000E+00 -0.94491E-01  0.17248E+00  0.00000E+00 -0.97670E-01  0.13036E+00  0.00000E+00 -0.13786E+00
          0.16582E+00  0.00000E+00 -0.12658E+00  0.13191E+00  0.00000E+00 -0.13740E+00  0.93920E-01  0.00000E+00 -0.14848E+00  0.11302E+00  0.00000E+00 -0.15968E+00  0.84408E-01  0.00000E+00 -0.15564E+00  0.85502E-01  0.00000E+00 -0.15846E+00
          0.36207E+00  0.00000E+00 -0.17269E-03  0.37207E+00  0.00000E+00 -0.67347E-02  0.37280E+00  0.00000E+00 -0.13837E-01  0.39429E+00  0.00000E+00 -0.20140E-01  0.36635E+00  0.00000E+00 -0.12227E-01  0.36257E+00  0.00000E+00 -0.10622E-01
          0.35088E+00  0.00000E+00 -0.21773E-01  0.33142E+00  0.00000E+00 -0.19037E-01  0.31053E+00  0.00000E+00 -0.30038E-01  0.28687E+00  0.00000E+00 -0.36344E-01  0.29962E+00  0.00000E+00 -0.44276E-01  0.28350E+00  0.00000E+00 -0.43141E-01
          0.28594E+00  0.00000E+00 -0.51406E-01  0.25758E+00  0.00000E+00 -0.59999E-01  0.27337E+00  0.00000E+00 -0.67795E-01  0.25376E+00  0.00000E+00 -0.66331E-01  0.25334E+00  0.00000E+00 -0.76089E-01  0.24520E+00  0.00000E+00 -0.75334E-01
          0.22546E+00  0.00000E+00 -0.82635E-01  0.22848E+00  0.00000E+00 -0.90821E-01  0.20547E+00  0.00000E+00 -0.96244E-01  0.21670E+00  0.00000E+00 -0.94032E-01  0.20577E+00  0.00000E+00 -0.99716E-01  0.17145E+00  0.00000E+00 -0.12810E+00
          0.19501E+00  0.00000E+00 -0.11624E+00  0.16751E+00  0.00000E+00 -0.12563E+00  0.11825E+00  0.00000E+00 -0.14172E+00  0.13769E+00  0.00000E+00 -0.14956E+00  0.11132E+00  0.00000E+00 -0.15058E+00  0.11300E+00  0.00000E+00 -0.15150E+00
          0.40216E+00  0.00000E+00 -0.71404E-03  0.41502E+00  0.00000E+00 -0.46114E-02  0.46045E+00  0.00000E+00 -0.13897E-01  0.42120E+00  0.00000E+00 -0.11287E-01  0.43644E+00  0.00000E+00 -0.24455E-01  0.40551E+00  0.00000E+00 -0.20604E-01
          0.38424E+00  0.00000E+00 -0.27281E-01  0.37228E+00  0.00000E+00 -0.17325E-01  0.35102E+00  0.00000E+00 -0.21316E-01  0.34146E+00  0.00000E+00 -0.28398E-01  0.33346E+00  0.00000E+00 -0.35226E-01  0.31013E+00  0.00000E+00 -0.50814E-01
          0.30497E+00  0.00000E+00 -0.46614E-01  0.30137E+00  0.00000E+00 -0.52846E-01  0.28000E+00  0.00000E+00 -0.63569E-01  0.27917E+00  0.00000E+00 -0.62885E-01  0.26086E+00  0.00000E+00 -0.68104E-01  0.27420E+00  0.00000E+00 -0.74413E-01
          0.25818E+00  0.00000E+00 -0.75523E-01  0.26575E+00  0.00000E+00 -0.85850E-01  0.23628E+00  0.00000E+00 -0.91265E-01  0.24618E+00  0.00000E+00 -0.89144E-01  0.23496E+00  0.00000E+00 -0.94667E-01  0.20007E+00  0.00000E+00 -0.12294E+00
          0.22981E+00  0.00000E+00 -0.11279E+00  0.19699E+00  0.00000E+00 -0.12191E+00  0.14428E+00  0.00000E+00 -0.14443E+00  0.16272E+00  0.00000E+00 -0.14973E+00  0.13806E+00  0.00000E+00 -0.15168E+00  0.14003E+00  0.00000E+00 -0.15261E+00
          0.43279E+00  0.00000E+00  0.67998E-03  0.48676E+00  0.00000E+00 -0.13125E-02  0.47436E+00  0.00000E+00 -0.40136E-02  0.44905E+00  0.00000E+00 -0.12323E-01  0.45628E+00  0.00000E+00 -0.15546E-01  0.43409E+00  0.00000E+00 -0.20128E-01
          0.42492E+00  0.00000E+00 -0.23309E-01  0.41790E+00  0.00000E+00 -0.30966E-01  0.39410E+00  0.00000E+00 -0.33057E-01  0.37907E+00  0.00000E+00 -0.33969E-01  0.36299E+00  0.00000E+00 -0.27046E-01  0.34765E+00  0.00000E+00 -0.33124E-01
          0.32904E+00  0.00000E+00 -0.36587E-01  0.33159E+00  0.00000E+00 -0.42960E-01  0.31097E+00  0.00000E+00 -0.50554E-01  0.31822E+00  0.00000E+00 -0.56814E-01  0.29592E+00  0.00000E+00 -0.63878E-01  0.30772E+00  0.00000E+00 -0.70046E-01
          0.28668E+00  0.00000E+00 -0.76353E-01  0.29254E+00  0.00000E+00 -0.86024E-01  0.26969E+00  0.00000E+00 -0.92177E-01  0.27731E+00  0.00000E+00 -0.89278E-01  0.26480E+00  0.00000E+00 -0.93425E-01  0.23142E+00  0.00000E+00 -0.11980E+00
          0.26218E+00  0.00000E+00 -0.10805E+00  0.22478E+00  0.00000E+00 -0.11827E+00  0.17370E+00  0.00000E+00 -0.14244E+00  0.19038E+00  0.00000E+00 -0.14449E+00  0.17240E+00  0.00000E+00 -0.14796E+00  0.17405E+00  0.00000E+00 -0.14867E+00
          0.49599E+00  0.00000E+00  0.12460E-03  0.51829E+00  0.00000E+00 -0.36978E-02  0.51843E+00  0.00000E+00 -0.80185E-02  0.49412E+00  0.00000E+00 -0.17498E-01  0.49792E+00  0.00000E+00 -0.16079E-01  0.48081E+00  0.00000E+00 -0.21483E-01
          0.47262E+00  0.00000E+00 -0.24390E-01  0.45028E+00  0.00000E+00 -0.28900E-01  0.43999E+00  0.00000E+00 -0.33218E-01  0.42253E+00  0.00000E+00 -0.36030E-01  0.40991E+00  0.00000E+00 -0.42330E-01  0.39061E+00  0.00000E+00 -0.51588E-01
          0.37836E+00  0.00000E+00 -0.43321E-01  0.37879E+00  0.00000E+00 -0.49876E-01  0.35969E+00  0.00000E+00 -0.50880E-01  0.36429E+00  0.00000E+00 -0.59623E-01  0.33927E+00  0.00000E+00 -0.67430E-01  0.34139E+00  0.00000E+00 -0.74023E-01
          0.32333E+00  0.00000E+00 -0.77115E-01  0.32706E+00  0.00000E+00 -0.85884E-01  0.30194E+00  0.00000E+00 -0.89882E-01  0.31100E+00  0.00000E+00 -0.91949E-01  0.29358E+00  0.00000E+00 -0.95110E-01  0.26641E+00  0.00000E+00 -0.11865E+00
          0.28963E+00  0.00000E+00 -0.10457E+00  0.25396E+00  0.00000E+00 -0.11644E+00  0.20297E+00  0.00000E+00 -0.14529E+00  0.21823E+00  0.00000E+00 -0.14064E+00  0.20897E+00  0.00000E+00 -0.14532E+00  0.20876E+00  0.00000E+00 -0.14660E+00
          0.53678E+00  0.00000E+00 -0.69555E-03  0.56045E+00  0.00000E+00 -0.41388E-02  0.56284E+00  0.00000E+00 -0.82179E-02  0.53849E+00  0.00000E+00 -0.16526E-01  0.54189E+00  0.00000E+00 -0.16581E-01  0.52392E+00  0.00000E+00 -0.21878E-01
          0.51342E+00  0.00000E+00 -0.25561E-01  0.49456E+00  0.00000E+00 -0.30653E-01  0.48486E+00  0.00000E+00 -0.31738E-01  0.46982E+00  0.00000E+00 -0.40131E-01  0.45828E+00  0.00000E+00 -0.42371E-01  0.43659E+00  0.00000E+00 -0.48663E-01
          0.41939E+00  0.00000E+00 -0.46522E-01  0.39899E+00  0.00000E+00 -0.57768E-01  0.39711E+00  0.00000E+00 -0.63080E-01  0.38071E+00  0.00000E+00 -0.65463E-01  0.40754E+00  0.00000E+00 -0.81188E-01  0.37685E+00  0.00000E+00 -0.81933E-01
          0.35710E+00  0.00000E+00 -0.83073E-01  0.36186E+00  0.00000E+00 -0.94554E-01  0.33303E+00  0.00000E+00 -0.96799E-01  0.34302E+00  0.00000E+00 -0.10020E+00  0.32564E+00  0.00000E+00 -0.10162E+00  0.29824E+00  0.00000E+00 -0.12212E+00
          0.32138E+00  0.00000E+00 -0.10865E+00  0.28588E+00  0.00000E+00 -0.12075E+00  0.23707E+00  0.00000E+00 -0.15295E+00  0.24987E+00  0.00000E+00 -0.14396E+00  0.24632E+00  0.00000E+00 -0.14959E+00  0.24428E+00  0.00000E+00 -0.15112E+00
          0.57833E+00  0.00000E+00 -0.79775E-03  0.60034E+00  0.00000E+00 -0.41307E-02  0.60510E+00  0.00000E+00 -0.85900E-02  0.58242E+00  0.00000E+00 -0.14696E-01  0.58649E+00  0.00000E+00 -0.15516E-01  0.56732E+00  0.00000E+00 -0.21798E-01
          0.55830E+00  0.00000E+00 -0.25547E-01  0.53890E+00  0.00000E+00 -0.31690E-01  0.52669E+00  0.00000E+00 -0.33301E-01  0.51198E+00  0.00000E+00 -0.41439E-01  0.50148E+00  0.00000E+00 -0.45636E-01  0.48104E+00  0.00000E+00 -0.45233E-01
          0.46829E+00  0.00000E+00 -0.51246E-01  0.44560E+00  0.00000E+00 -0.60083E-01  0.42918E+00  0.00000E+00 -0.56068E-01  0.41281E+00  0.00000E+00 -0.65034E-01  0.43278E+00  0.00000E+00 -0.74465E-01  0.40451E+00  0.00000E+00 -0.82147E-01
          0.38654E+00  0.00000E+00 -0.83261E-01  0.39256E+00  0.00000E+00 -0.94984E-01  0.36258E+00  0.00000E+00 -0.10423E+00  0.36935E+00  0.00000E+00 -0.10225E+00  0.35478E+00  0.00000E+00 -0.10745E+00  0.32583E+00  0.00000E+00 -0.12747E+00
          0.35006E+00  0.00000E+00 -0.11402E+00  0.31844E+00  0.00000E+00 -0.12724E+00  0.27189E+00  0.00000E+00 -0.16171E+00  0.28524E+00  0.00000E+00 -0.14891E+00  0.28483E+00  0.00000E+00 -0.15528E+00  0.28072E+00  0.00000E+00 -0.15709E+00
          0.61784E+00  0.00000E+00 -0.72482E-03  0.63819E+00  0.00000E+00 -0.38601E-02  0.64436E+00  0.00000E+00 -0.10198E-01  0.62391E+00  0.00000E+00 -0.12476E-01  0.62963E+00  0.00000E+00 -0.13718E-01  0.61024E+00  0.00000E+00 -0.20328E-01
          0.60291E+00  0.00000E+00 -0.23687E-01  0.58396E+00  0.00000E+00 -0.30704E-01  0.57228E+00  0.00000E+00 -0.33229E-01  0.55499E+00  0.00000E+00 -0.41842E-01  0.54490E+00  0.00000E+00 -0.45832E-01  0.52743E+00  0.00000E+00 -0.48949E-01
          0.51385E+00  0.00000E+00 -0.53134E-01  0.49801E+00  0.00000E+00 -0.58679E-01  0.47634E+00  0.00000E+00 -0.60726E-01  0.46316E+00  0.00000E+00 -0.60262E-01  0.43231E+00  0.00000E+00 -0.77193E-01  0.43288E+00  0.00000E+00 -0.75387E-01
          0.41640E+00  0.00000E+00 -0.77650E-01  0.42414E+00  0.00000E+00 -0.85230E-01  0.39313E+00  0.00000E+00 -0.97063E-01  0.40068E+00  0.00000E+00 -0.97055E-01  0.38648E+00  0.00000E+00 -0.10196E+00  0.35660E+00  0.00000E+00 -0.12389E+00
          0.37600E+00  0.00000E+00 -0.11005E+00  0.35382E+00  0.00000E+00 -0.12787E+00  0.30746E+00  0.00000E+00 -0.16493E+00  0.32331E+00  0.00000E+00 -0.14959E+00  0.32284E+00  0.00000E+00 -0.15588E+00  0.31753E+00  0.00000E+00 -0.15791E+00
          0.65719E+00  0.00000E+00 -0.54801E-03  0.67611E+00  0.00000E+00 -0.38191E-02  0.68190E+00  0.00000E+00 -0.13630E-01  0.66349E+00  0.00000E+00 -0.10516E-01  0.67157E+00  0.00000E+00 -0.12450E-01  0.65158E+00  0.00000E+00 -0.19470E-01
          0.64541E+00  0.00000E+00 -0.20686E-01  0.62754E+00  0.00000E+00 -0.28761E-01  0.61657E+00  0.00000E+00 -0.31835E-01  0.59922E+00  0.00000E+00 -0.39931E-01  0.58937E+00  0.00000E+00 -0.45259E-01  0.57049E+00  0.00000E+00 -0.49719E-01
          0.55683E+00  0.00000E+00 -0.53313E-01  0.54196E+00  0.00000E+00 -0.57419E-01  0.52499E+00  0.00000E+00 -0.63904E-01  0.50334E+00  0.00000E+00 -0.68493E-01  0.49008E+00  0.00000E+00 -0.69632E-01  0.45883E+00  0.00000E+00 -0.84839E-01
          0.44592E+00  0.00000E+00 -0.88712E-01  0.45769E+00  0.00000E+00 -0.87520E-01  0.43426E+00  0.00000E+00 -0.98505E-01  0.43832E+00  0.00000E+00 -0.10165E+00  0.42580E+00  0.00000E+00 -0.10355E+00  0.40046E+00  0.00000E+00 -0.11925E+00
          0.41414E+00  0.00000E+00 -0.10633E+00  0.39618E+00  0.00000E+00 -0.12352E+00  0.35459E+00  0.00000E+00 -0.16022E+00  0.37026E+00  0.00000E+00 -0.14523E+00  0.37041E+00  0.00000E+00 -0.15063E+00  0.36445E+00  0.00000E+00 -0.15271E+00
          0.70098E+00  0.00000E+00  0.28989E-03  0.70582E+00  0.00000E+00 -0.42693E-02  0.74205E+00  0.00000E+00 -0.12268E-01  0.70071E+00  0.00000E+00 -0.87308E-02  0.72968E+00  0.00000E+00 -0.19517E-01  0.68822E+00  0.00000E+00 -0.18707E-01