<?xml version="1.0"?>
<VTKFile type="UnstructuredGrid" version="0.1" byte_order="LittleEndian" compressor="vtkZLibDataCompressor">
<UnstructuredGrid>
  <Piece NumberOfPoints="1800"        NumberOfCells="1"      >
    <Points>
      <DataArray type="Float32" NumberOfComponents="3" format="ascii" >
        0.82156E-02  0.00000E+00  0.28372E-02  0.62686E-02  0.00000E+00  0.11168E-01  0.59901E-02  0.00000E+00  0.19199E-01  0.61783E-02  0.00000E+00  0.27167E-01  0.61503E-02  0.00000E+00  0.35074E-01  0.61194E-02  0.00000E+00  0.43052E-01
        0.60893E-02  0.00000E+00  0.51057E-01  0.60553E-02  0.00000E+00  0.59108E-01  0.60178E-02  0.00000E+00  0.67210E-01  0.59790E-02  0.00000E+00  0.75364E-01  0.59388E-02  0.00000E+00  0.83573E-01  0.58982E-02  0.00000E+00  0.91840E-01
        0.58576E-02  0.00000E+00  0.10017E+00  0.58174E-02  0.00000E+00  0.10855E+00  0.57780E-02  0.00000E+00  0.11699E+00  0.57397E-02  0.00000E+00  0.12549E+00  0.57026E-02  0.00000E+00  0.13404E+00  0.56669E-02  0.00000E+00  0.14265E+00
        0.56327E-02  0.00000E+00  0.15132E+00  0.56001E-02  0.00000E+00  0.16003E+00  0.55689E-02  0.00000E+00  0.16880E+00  0.55400E-02  0.00000E+00  0.17761E+00  0.55122E-02  0.00000E+00  0.18646E+00  0.54887E-02  0.00000E+00  0.19536E+00
        0.54646E-02  0.00000E+00  0.20429E+00  0.54490E-02  0.00000E+00  0.21326E+00  0.54261E-02  0.00000E+00  0.22225E+00  0.54177E-02  0.00000E+00  0.23126E+00  0.54150E-02  0.00000E+00  0.24042E+00  0.52197E-02  0.00000E+00  0.24900E+00
        0.21399E-01  0.00000E+00  0.40761E-02  0.18379E-01  0.00000E+00  0.12223E-01  0.18443E-01  0.00000E+00  0.20035E-01  0.18632E-01  0.00000E+00  0.27765E-01  0.18475E-01  0.00000E+00  0.35627E-01  0.18426E-01  0.00000E+00  0.43530E-01
        0.18311E-01  0.00000E+00  0.51460E-01  0.18204E-01  0.00000E+00  0.59467E-01  0.18089E-01  0.00000E+00  0.67530E-01  0.17974E-01  0.00000E+00  0.75655E-01  0.17857E-01  0.00000E+00  0.83843E-01  0.17742E-01  0.00000E+00  0.92091E-01
        0.17628E-01  0.00000E+00  0.10040E+00  0.17515E-01  0.00000E+00  0.10876E+00  0.17406E-01  0.00000E+00  0.11719E+00  0.17300E-01  0.00000E+00  0.12567E+00  0.17198E-01  0.00000E+00  0.13420E+00  0.17100E-01  0.00000E+00  0.14279E+00
        0.17005E-01  0.00000E+00  0.15143E+00  0.16916E-01  0.00000E+00  0.16012E+00  0.16830E-01  0.00000E+00  0.16886E+00  0.16749E-01  0.00000E+00  0.17765E+00  0.16672E-01  0.00000E+00  0.18647E+00  0.16604E-01  0.00000E+00  0.19535E+00
        0.16537E-01  0.00000E+00  0.20425E+00  0.16484E-01  0.00000E+00  0.21321E+00  0.16431E-01  0.00000E+00  0.22217E+00  0.16382E-01  0.00000E+00  0.23114E+00  0.16339E-01  0.00000E+00  0.24032E+00  0.16220E-01  0.00000E+00  0.24880E+00
        0.33838E-01  0.00000E+00  0.42549E-02  0.31083E-01  0.00000E+00  0.12575E-01  0.31146E-01  0.00000E+00  0.20385E-01  0.31237E-01  0.00000E+00  0.28183E-01  0.31051E-01  0.00000E+00  0.36102E-01  0.30913E-01  0.00000E+00  0.44020E-01
        0.30716E-01  0.00000E+00  0.51981E-01  0.30517E-01  0.00000E+00  0.60008E-01  0.30311E-01  0.00000E+00  0.68085E-01  0.30106E-01  0.00000E+00  0.76219E-01  0.29904E-01  0.00000E+00  0.84410E-01  0.29705E-01  0.00000E+00  0.92657E-01
        0.29511E-01  0.00000E+00  0.10096E+00  0.29321E-01  0.00000E+00  0.10932E+00  0.29136E-01  0.00000E+00  0.11773E+00  0.28957E-01  0.00000E+00  0.12619E+00  0.28784E-01  0.00000E+00  0.13471E+00  0.28617E-01  0.00000E+00  0.14328E+00
        0.28457E-01  0.00000E+00  0.15190E+00  0.28304E-01  0.00000E+00  0.16057E+00  0.28158E-01  0.00000E+00  0.16929E+00  0.28021E-01  0.00000E+00  0.17806E+00  0.27893E-01  0.00000E+00  0.18686E+00  0.27776E-01  0.00000E+00  0.19571E+00
        0.27669E-01  0.00000E+00  0.20459E+00  0.27575E-01  0.00000E+00  0.21352E+00  0.27490E-01  0.00000E+00  0.22247E+00  0.27415E-01  0.00000E+00  0.23142E+00  0.27352E-01  0.00000E+00  0.24061E+00  0.27298E-01  0.00000E+00  0.24899E+00
        0.45999E-01  0.00000E+00  0.42901E-02  0.43976E-01  0.00000E+00  0.12725E-01  0.43859E-01  0.00000E+00  0.20525E-01  0.43931E-01  0.00000E+00  0.28373E-01  0.43701E-01  0.00000E+00  0.36320E-01  0.43497E-01  0.00000E+00  0.44264E-01
        0.43230E-01  0.00000E+00  0.52252E-01  0.42949E-01  0.00000E+00  0.60297E-01  0.42664E-01  0.00000E+00  0.68388E-01  0.42380E-01  0.00000E+00  0.76533E-01  0.42099E-01  0.00000E+00  0.84731E-01  0.41823E-01  0.00000E+00  0.92981E-01
        0.41552E-01  0.00000E+00  0.10128E+00  0.41288E-01  0.00000E+00  0.10964E+00  0.41031E-01  0.00000E+00  0.11804E+00  0.40781E-01  0.00000E+00  0.12650E+00  0.40539E-01  0.00000E+00  0.13501E+00  0.40305E-01  0.00000E+00  0.14356E+00
        0.40081E-01  0.00000E+00  0.15217E+00  0.39867E-01  0.00000E+00  0.16082E+00  0.39663E-01  0.00000E+00  0.16952E+00  0.39471E-01  0.00000E+00  0.17827E+00  0.39292E-01  0.00000E+00  0.18705E+00  0.39127E-01  0.00000E+00  0.19588E+00
        0.38977E-01  0.00000E+00  0.20472E+00  0.38843E-01  0.00000E+00  0.21363E+00  0.38728E-01  0.00000E+00  0.22254E+00  0.38625E-01  0.00000E+00  0.23145E+00  0.38552E-01  0.00000E+00  0.24057E+00  0.38473E-01  0.00000E+00  0.24897E+00
        0.58041E-01  0.00000E+00  0.43087E-02  0.56761E-01  0.00000E+00  0.12807E-01  0.56566E-01  0.00000E+00  0.20606E-01  0.56572E-01  0.00000E+00  0.28466E-01  0.56317E-01  0.00000E+00  0.36412E-01  0.56041E-01  0.00000E+00  0.44363E-01
        0.55700E-01  0.00000E+00  0.52360E-01  0.55341E-01  0.00000E+00  0.60413E-01  0.54976E-01  0.00000E+00  0.68513E-01  0.54612E-01  0.00000E+00  0.76666E-01  0.54254E-01  0.00000E+00  0.84871E-01  0.53901E-01  0.00000E+00  0.93126E-01
        0.53557E-01  0.00000E+00  0.10143E+00  0.53219E-01  0.00000E+00  0.10979E+00  0.52890E-01  0.00000E+00  0.11819E+00  0.52570E-01  0.00000E+00  0.12664E+00  0.52260E-01  0.00000E+00  0.13515E+00  0.51960E-01  0.00000E+00  0.14369E+00
        0.51671E-01  0.00000E+00  0.15229E+00  0.51394E-01  0.00000E+00  0.16093E+00  0.51130E-01  0.00000E+00  0.16962E+00  0.50881E-01  0.00000E+00  0.17835E+00  0.50648E-01  0.00000E+00  0.18711E+00  0.50433E-01  0.00000E+00  0.19593E+00
        0.50237E-01  0.00000E+00  0.20476E+00  0.50061E-01  0.00000E+00  0.21365E+00  0.49911E-01  0.00000E+00  0.22255E+00  0.49778E-01  0.00000E+00  0.23145E+00  0.49690E-01  0.00000E+00  0.24056E+00  0.49621E-01  0.00000E+00  0.24891E+00
        0.70034E-01  0.00000E+00  0.43108E-02  0.69474E-01  0.00000E+00  0.12845E-01  0.69272E-01  0.00000E+00  0.20649E-01  0.69211E-01  0.00000E+00  0.28510E-01  0.68925E-01  0.00000E+00  0.36449E-01  0.68575E-01  0.00000E+00  0.44401E-01
        0.68161E-01  0.00000E+00  0.52398E-01  0.67725E-01  0.00000E+00  0.60452E-01  0.67283E-01  0.00000E+00  0.68553E-01  0.66843E-01  0.00000E+00  0.76707E-01  0.66410E-01  0.00000E+00  0.84912E-01  0.65985E-01  0.00000E+00  0.93167E-01
        0.65569E-01  0.00000E+00  0.10147E+00  0.65162E-01  0.00000E+00  0.10982E+00  0.64765E-01  0.00000E+00  0.11823E+00  0.64379E-01  0.00000E+00  0.12668E+00  0.64004E-01  0.00000E+00  0.13517E+00  0.63640E-01  0.00000E+00  0.14372E+00
        0.63290E-01  0.00000E+00  0.15230E+00  0.62955E-01  0.00000E+00  0.16094E+00  0.62636E-01  0.00000E+00  0.16961E+00  0.62334E-01  0.00000E+00  0.17833E+00  0.62052E-01  0.00000E+00  0.18708E+00  0.61792E-01  0.00000E+00  0.19589E+00
        0.61556E-01  0.00000E+00  0.20470E+00  0.61344E-01  0.00000E+00  0.21357E+00  0.61165E-01  0.00000E+00  0.22245E+00  0.61014E-01  0.00000E+00  0.23132E+00  0.60910E-01  0.00000E+00  0.24041E+00  0.60820E-01  0.00000E+00  0.24874E+00
        0.82034E-01  0.00000E+00  0.43023E-02  0.82131E-01  0.00000E+00  0.12848E-01  0.81997E-01  0.00000E+00  0.20662E-01  0.81870E-01  0.00000E+00  0.28514E-01  0.81552E-01  0.00000E+00  0.36440E-01  0.81126E-01  0.00000E+00  0.44382E-01
        0.80637E-01  0.00000E+00  0.52372E-01  0.80123E-01  0.00000E+00  0.60419E-01  0.79602E-01  0.00000E+00  0.68515E-01  0.79085E-01  0.00000E+00  0.76664E-01  0.78577E-01  0.00000E+00  0.84865E-01  0.78080E-01  0.00000E+00  0.93116E-01
        0.77593E-01  0.00000E+00  0.10142E+00  0.77117E-01  0.00000E+00  0.10976E+00  0.76652E-01  0.00000E+00  0.11816E+00  0.76200E-01  0.00000E+00  0.12661E+00  0.75760E-01  0.00000E+00  0.13510E+00  0.75335E-01  0.00000E+00  0.14363E+00
        0.74924E-01  0.00000E+00  0.15221E+00  0.74530E-01  0.00000E+00  0.16084E+00  0.74155E-01  0.00000E+00  0.16950E+00  0.73801E-01  0.00000E+00  0.17821E+00  0.73468E-01  0.00000E+00  0.18695E+00  0.73162E-01  0.00000E+00  0.19574E+00
        0.72882E-01  0.00000E+00  0.20454E+00  0.72634E-01  0.00000E+00  0.21341E+00  0.72420E-01  0.00000E+00  0.22226E+00  0.72241E-01  0.00000E+00  0.23113E+00  0.72118E-01  0.00000E+00  0.24021E+00  0.72019E-01  0.00000E+00  0.24851E+00
        0.94070E-01  0.00000E+00  0.42881E-02  0.94752E-01  0.00000E+00  0.12825E-01  0.94731E-01  0.00000E+00  0.20646E-01  0.94553E-01  0.00000E+00  0.28485E-01  0.94196E-01  0.00000E+00  0.36394E-01  0.93693E-01  0.00000E+00  0.44323E-01
        0.93126E-01  0.00000E+00  0.52300E-01  0.92532E-01  0.00000E+00  0.60338E-01  0.91932E-01  0.00000E+00  0.68425E-01  0.91338E-01  0.00000E+00  0.76565E-01  0.90756E-01  0.00000E+00  0.84758E-01  0.90185E-01  0.00000E+00  0.93001E-01
        0.89627E-01  0.00000E+00  0.10129E+00  0.89083E-01  0.00000E+00  0.10963E+00  0.88551E-01  0.00000E+00  0.11802E+00  0.88034E-01  0.00000E+00  0.12646E+00  0.87530E-01  0.00000E+00  0.13494E+00  0.87043E-01  0.00000E+00  0.14347E+00
        0.86573E-01  0.00000E+00  0.15204E+00  0.86122E-01  0.00000E+00  0.16066E+00  0.85692E-01  0.00000E+00  0.16932E+00  0.85286E-01  0.00000E+00  0.17801E+00  0.84905E-01  0.00000E+00  0.18674E+00  0.84553E-01  0.00000E+00  0.19552E+00
        0.84234E-01  0.00000E+00  0.20431E+00  0.83950E-01  0.00000E+00  0.21316E+00  0.83707E-01  0.00000E+00  0.22200E+00  0.83505E-01  0.00000E+00  0.23086E+00  0.83366E-01  0.00000E+00  0.23992E+00  0.83248E-01  0.00000E+00  0.24820E+00
[...]
<PointData>
      <DataArray type="Float32" Name="Velocity vectors"  NumberOfComponents="3"  format="ascii" >
          0.34042E-01  0.00000E+00 -0.14731E-01  0.71888E-02  0.00000E+00 -0.23588E-01  0.48058E-02  0.00000E+00 -0.29327E-01  0.78492E-02  0.00000E+00 -0.40010E-01  0.77365E-02  0.00000E+00 -0.51542E-01  0.69923E-02  0.00000E+00 -0.61528E-01
          0.66455E-02  0.00000E+00 -0.71214E-01  0.63885E-02  0.00000E+00 -0.80547E-01  0.61333E-02  0.00000E+00 -0.89567E-01  0.59206E-02  0.00000E+00 -0.98426E-01  0.57102E-02  0.00000E+00 -0.10712E+00  0.55020E-02  0.00000E+00 -0.11565E+00
          0.52940E-02  0.00000E+00 -0.12402E+00  0.50855E-02  0.00000E+00 -0.13223E+00  0.48809E-02  0.00000E+00 -0.14027E+00  0.46837E-02  0.00000E+00 -0.14815E+00  0.44987E-02  0.00000E+00 -0.15585E+00  0.43310E-02  0.00000E+00 -0.16340E+00
          0.41881E-02  0.00000E+00 -0.17081E+00  0.40692E-02  0.00000E+00 -0.17812E+00  0.39723E-02  0.00000E+00 -0.18537E+00  0.38770E-02  0.00000E+00 -0.19259E+00  0.37769E-02  0.00000E+00 -0.19977E+00  0.37009E-02  0.00000E+00 -0.20687E+00
          0.35596E-02  0.00000E+00 -0.21398E+00  0.35875E-02  0.00000E+00 -0.22080E+00  0.32385E-02  0.00000E+00 -0.22797E+00  0.35991E-02  0.00000E+00 -0.23437E+00  0.30707E-02  0.00000E+00 -0.24084E+00  0.19028E-02  0.00000E+00 -0.25016E+00
          0.64602E-01  0.00000E+00 -0.60375E-02  0.11949E-01  0.00000E+00 -0.19345E-01  0.21074E-01  0.00000E+00 -0.25287E-01  0.24293E-01  0.00000E+00 -0.37860E-01  0.21387E-01  0.00000E+00 -0.48009E-01  0.21374E-01  0.00000E+00 -0.57720E-01
          0.19819E-01  0.00000E+00 -0.68011E-01  0.18938E-01  0.00000E+00 -0.77556E-01  0.18158E-01  0.00000E+00 -0.86806E-01  0.17468E-01  0.00000E+00 -0.95826E-01  0.16802E-01  0.00000E+00 -0.10455E+00  0.16169E-01  0.00000E+00 -0.11305E+00
          0.15563E-01  0.00000E+00 -0.12136E+00  0.14980E-01  0.00000E+00 -0.12949E+00  0.14420E-01  0.00000E+00 -0.13746E+00  0.13887E-01  0.00000E+00 -0.14528E+00  0.13388E-01  0.00000E+00 -0.15298E+00  0.12929E-01  0.00000E+00 -0.16056E+00
          0.12523E-01  0.00000E+00 -0.16804E+00  0.12189E-01  0.00000E+00 -0.17545E+00  0.11962E-01  0.00000E+00 -0.18278E+00  0.11738E-01  0.00000E+00 -0.19008E+00  0.11493E-01  0.00000E+00 -0.19736E+00  0.11293E-01  0.00000E+00 -0.20446E+00
          0.10994E-01  0.00000E+00 -0.21182E+00  0.10898E-01  0.00000E+00 -0.21845E+00  0.10469E-01  0.00000E+00 -0.22611E+00  0.10539E-01  0.00000E+00 -0.23241E+00  0.99643E-02  0.00000E+00 -0.23861E+00  0.93491E-02  0.00000E+00 -0.24954E+00
          0.84095E-01  0.00000E+00 -0.36347E-02  0.28621E-01  0.00000E+00 -0.16063E-01  0.38433E-01  0.00000E+00 -0.23676E-01  0.41073E-01  0.00000E+00 -0.35963E-01  0.38222E-01  0.00000E+00 -0.45779E-01  0.37468E-01  0.00000E+00 -0.55820E-01
          0.35282E-01  0.00000E+00 -0.65877E-01  0.33613E-01  0.00000E+00 -0.75231E-01  0.31967E-01  0.00000E+00 -0.84292E-01  0.30572E-01  0.00000E+00 -0.92994E-01  0.29318E-01  0.00000E+00 -0.10139E+00  0.28177E-01  0.00000E+00 -0.10960E+00
          0.27132E-01  0.00000E+00 -0.11765E+00  0.26162E-01  0.00000E+00 -0.12557E+00  0.25263E-01  0.00000E+00 -0.13338E+00  0.24436E-01  0.00000E+00 -0.14112E+00  0.23679E-01  0.00000E+00 -0.14878E+00  0.23003E-01  0.00000E+00 -0.15639E+00
          0.22416E-01  0.00000E+00 -0.16394E+00  0.21917E-01  0.00000E+00 -0.17146E+00  0.21471E-01  0.00000E+00 -0.17889E+00  0.21060E-01  0.00000E+00 -0.18625E+00  0.20663E-01  0.00000E+00 -0.19360E+00  0.20274E-01  0.00000E+00 -0.20072E+00
          0.19909E-01  0.00000E+00 -0.20826E+00  0.19530E-01  0.00000E+00 -0.21483E+00  0.19161E-01  0.00000E+00 -0.22275E+00  0.18780E-01  0.00000E+00 -0.22907E+00  0.18275E-01  0.00000E+00 -0.23545E+00  0.17649E-01  0.00000E+00 -0.24681E+00
          0.94791E-01  0.00000E+00 -0.20074E-02  0.50878E-01  0.00000E+00 -0.12172E-01  0.54746E-01  0.00000E+00 -0.21867E-01  0.58480E-01  0.00000E+00 -0.34101E-01  0.54861E-01  0.00000E+00 -0.44155E-01  0.53294E-01  0.00000E+00 -0.54347E-01
          0.50276E-01  0.00000E+00 -0.64221E-01  0.47664E-01  0.00000E+00 -0.73414E-01  0.45308E-01  0.00000E+00 -0.82293E-01  0.43288E-01  0.00000E+00 -0.90831E-01  0.41547E-01  0.00000E+00 -0.99088E-01  0.40009E-01  0.00000E+00 -0.10717E+00
          0.38629E-01  0.00000E+00 -0.11510E+00  0.37369E-01  0.00000E+00 -0.12292E+00  0.36211E-01  0.00000E+00 -0.13066E+00  0.35149E-01  0.00000E+00 -0.13834E+00  0.34176E-01  0.00000E+00 -0.14597E+00  0.33294E-01  0.00000E+00 -0.15357E+00
          0.32502E-01  0.00000E+00 -0.16110E+00  0.31806E-01  0.00000E+00 -0.16862E+00  0.31189E-01  0.00000E+00 -0.17606E+00  0.30627E-01  0.00000E+00 -0.18348E+00  0.30107E-01  0.00000E+00 -0.19092E+00  0.29599E-01  0.00000E+00 -0.19812E+00
          0.29138E-01  0.00000E+00 -0.20581E+00  0.28648E-01  0.00000E+00 -0.21251E+00  0.28237E-01  0.00000E+00 -0.22065E+00  0.27710E-01  0.00000E+00 -0.22716E+00  0.27413E-01  0.00000E+00 -0.23396E+00  0.26839E-01  0.00000E+00 -0.24556E+00
          0.10196E+00  0.00000E+00 -0.15002E-02  0.72896E-01  0.00000E+00 -0.95681E-02  0.72742E-01  0.00000E+00 -0.20477E-01  0.75850E-01  0.00000E+00 -0.32565E-01  0.72085E-01  0.00000E+00 -0.42889E-01  0.69310E-01  0.00000E+00 -0.53202E-01
          0.65446E-01  0.00000E+00 -0.63094E-01  0.61941E-01  0.00000E+00 -0.72328E-01  0.58812E-01  0.00000E+00 -0.81206E-01  0.56133E-01  0.00000E+00 -0.89713E-01  0.53846E-01  0.00000E+00 -0.97914E-01  0.51870E-01  0.00000E+00 -0.10591E+00
          0.50133E-01  0.00000E+00 -0.11374E+00  0.48576E-01  0.00000E+00 -0.12146E+00  0.47167E-01  0.00000E+00 -0.12911E+00  0.45889E-01  0.00000E+00 -0.13671E+00  0.44729E-01  0.00000E+00 -0.14427E+00  0.43682E-01  0.00000E+00 -0.15182E+00
          0.42740E-01  0.00000E+00 -0.15933E+00  0.41891E-01  0.00000E+00 -0.16685E+00  0.41118E-01  0.00000E+00 -0.17431E+00  0.40413E-01  0.00000E+00 -0.18177E+00  0.39754E-01  0.00000E+00 -0.18925E+00  0.39150E-01  0.00000E+00 -0.19652E+00
          0.38563E-01  0.00000E+00 -0.20429E+00  0.38023E-01  0.00000E+00 -0.21107E+00  0.37501E-01  0.00000E+00 -0.21938E+00  0.36967E-01  0.00000E+00 -0.22596E+00  0.36580E-01  0.00000E+00 -0.23294E+00  0.36055E-01  0.00000E+00 -0.24470E+00
          0.10659E+00  0.00000E+00 -0.10916E-02  0.93605E-01  0.00000E+00 -0.78204E-02  0.91468E-01  0.00000E+00 -0.19213E-01  0.93440E-01  0.00000E+00 -0.31265E-01  0.89385E-01  0.00000E+00 -0.41855E-01  0.85292E-01  0.00000E+00 -0.52211E-01
          0.80448E-01  0.00000E+00 -0.62073E-01  0.76002E-01  0.00000E+00 -0.71292E-01  0.72104E-01  0.00000E+00 -0.80135E-01  0.68784E-01  0.00000E+00 -0.88632E-01  0.65973E-01  0.00000E+00 -0.96837E-01  0.63578E-01  0.00000E+00 -0.10483E+00
          0.61510E-01  0.00000E+00 -0.11266E+00  0.59689E-01  0.00000E+00 -0.12037E+00  0.58060E-01  0.00000E+00 -0.12801E+00  0.56592E-01  0.00000E+00 -0.13559E+00  0.55261E-01  0.00000E+00 -0.14314E+00  0.54052E-01  0.00000E+00 -0.15066E+00
          0.52953E-01  0.00000E+00 -0.15815E+00  0.51960E-01  0.00000E+00 -0.16566E+00  0.51059E-01  0.00000E+00 -0.17312E+00  0.50247E-01  0.00000E+00 -0.18060E+00  0.49495E-01  0.00000E+00 -0.18812E+00  0.48812E-01  0.00000E+00 -0.19545E+00
          0.48167E-01  0.00000E+00 -0.20331E+00  0.47566E-01  0.00000E+00 -0.21017E+00  0.47025E-01  0.00000E+00 -0.21865E+00  0.46475E-01  0.00000E+00 -0.22530E+00  0.46155E-01  0.00000E+00 -0.23248E+00  0.45578E-01  0.00000E+00 -0.24441E+00
          0.11007E+00  0.00000E+00 -0.93922E-03  0.11300E+00  0.00000E+00 -0.70298E-02  0.11086E+00  0.00000E+00 -0.18259E-01  0.11124E+00  0.00000E+00 -0.30356E-01  0.10686E+00  0.00000E+00 -0.41076E-01  0.10139E+00  0.00000E+00 -0.51444E-01
          0.95560E-01  0.00000E+00 -0.61310E-01  0.90221E-01  0.00000E+00 -0.70558E-01  0.85573E-01  0.00000E+00 -0.79420E-01  0.81629E-01  0.00000E+00 -0.87951E-01  0.78288E-01  0.00000E+00 -0.96191E-01  0.75450E-01  0.00000E+00 -0.10422E+00
          0.73014E-01  0.00000E+00 -0.11206E+00  0.70894E-01  0.00000E+00 -0.11978E+00  0.69021E-01  0.00000E+00 -0.12740E+00  0.67347E-01  0.00000E+00 -0.13496E+00  0.65843E-01  0.00000E+00 -0.14248E+00  0.64486E-01  0.00000E+00 -0.14998E+00
          0.63260E-01  0.00000E+00 -0.15746E+00  0.62153E-01  0.00000E+00 -0.16497E+00  0.61148E-01  0.00000E+00 -0.17244E+00  0.60241E-01  0.00000E+00 -0.17995E+00  0.59406E-01  0.00000E+00 -0.18751E+00  0.58658E-01  0.00000E+00 -0.19489E+00
          0.57954E-01  0.00000E+00 -0.20282E+00  0.57327E-01  0.00000E+00 -0.20972E+00  0.56743E-01  0.00000E+00 -0.21833E+00  0.56198E-01  0.00000E+00 -0.22502E+00  0.55811E-01  0.00000E+00 -0.23231E+00  0.55178E-01  0.00000E+00 -0.24433E+00
          0.11350E+00  0.00000E+00 -0.98243E-03  0.13087E+00  0.00000E+00 -0.70210E-02  0.13032E+00  0.00000E+00 -0.17582E-01  0.12933E+00  0.00000E+00 -0.29771E-01  0.12447E+00  0.00000E+00 -0.40596E-01  0.11760E+00  0.00000E+00 -0.50986E-01
          0.11073E+00  0.00000E+00 -0.60855E-01  0.10447E+00  0.00000E+00 -0.70094E-01  0.99065E-01  0.00000E+00 -0.78940E-01  0.94500E-01  0.00000E+00 -0.87467E-01  0.90642E-01  0.00000E+00 -0.95715E-01  0.87369E-01  0.00000E+00 -0.10376E+00
          0.84569E-01  0.00000E+00 -0.11164E+00  0.82151E-01  0.00000E+00 -0.11937E+00  0.80035E-01  0.00000E+00 -0.12701E+00  0.78165E-01  0.00000E+00 -0.13458E+00  0.76492E-01  0.00000E+00 -0.14211E+00  0.74989E-01  0.00000E+00 -0.14962E+00
          0.73633E-01  0.00000E+00 -0.15710E+00  0.72412E-01  0.00000E+00 -0.16462E+00  0.71311E-01  0.00000E+00 -0.17210E+00  0.70325E-01  0.00000E+00 -0.17963E+00  0.69426E-01  0.00000E+00 -0.18722E+00  0.68628E-01  0.00000E+00 -0.19464E+00
          0.67881E-01  0.00000E+00 -0.20264E+00  0.67227E-01  0.00000E+00 -0.20958E+00  0.66615E-01  0.00000E+00 -0.21830E+00  0.66056E-01  0.00000E+00 -0.22501E+00  0.65675E-01  0.00000E+00 -0.23241E+00  0.64955E-01  0.00000E+00 -0.24457E+00
          0.11781E+00  0.00000E+00 -0.11725E-02  0.14728E+00  0.00000E+00 -0.75223E-02  0.14965E+00  0.00000E+00 -0.17186E-01  0.14764E+00  0.00000E+00 -0.29492E-01  0.14221E+00  0.00000E+00 -0.40329E-01  0.13392E+00  0.00000E+00 -0.50705E-01
          0.12598E+00  0.00000E+00 -0.60574E-01  0.11881E+00  0.00000E+00 -0.69799E-01  0.11267E+00  0.00000E+00 -0.78641E-01  0.10750E+00  0.00000E+00 -0.87178E-01  0.10314E+00  0.00000E+00 -0.95445E-01  0.99446E-01  0.00000E+00 -0.10352E+00
          0.96279E-01  0.00000E+00 -0.11143E+00  0.93545E-01  0.00000E+00 -0.11920E+00  0.91164E-01  0.00000E+00 -0.12686E+00  0.89074E-01  0.00000E+00 -0.13445E+00  0.87225E-01  0.00000E+00 -0.14198E+00  0.85576E-01  0.00000E+00 -0.14950E+00
          0.84101E-01  0.00000E+00 -0.15699E+00  0.82781E-01  0.00000E+00 -0.16453E+00  0.81596E-01  0.00000E+00 -0.17203E+00  0.80539E-01  0.00000E+00 -0.17960E+00  0.79581E-01  0.00000E+00 -0.18722E+00  0.78738E-01  0.00000E+00 -0.19468E+00
          0.77952E-01  0.00000E+00 -0.20273E+00  0.77279E-01  0.00000E+00 -0.20972E+00  0.76640E-01  0.00000E+00 -0.21854E+00  0.76070E-01  0.00000E+00 -0.22527E+00  0.75643E-01  0.00000E+00 -0.23275E+00  0.74828E-01  0.00000E+00 -0.24499E+00
          0.12350E+00  0.00000E+00 -0.13749E-02  0.16241E+00  0.00000E+00 -0.81761E-02  0.16878E+00  0.00000E+00 -0.16936E-01  0.16612E+00  0.00000E+00 -0.29375E-01  0.16008E+00  0.00000E+00 -0.40204E-01  0.15037E+00  0.00000E+00 -0.50558E-01
          0.14133E+00  0.00000E+00 -0.60440E-01  0.13323E+00  0.00000E+00 -0.69654E-01  0.12635E+00  0.00000E+00 -0.78491E-01  0.12059E+00  0.00000E+00 -0.87028E-01  0.11574E+00  0.00000E+00 -0.95302E-01  0.11162E+00  0.00000E+00 -0.10339E+00
          0.10810E+00  0.00000E+00 -0.11132E+00  0.10506E+00  0.00000E+00 -0.11913E+00  0.10242E+00  0.00000E+00 -0.12683E+00  0.10011E+00  0.00000E+00 -0.13446E+00  0.98075E-01  0.00000E+00 -0.14203E+00  0.96280E-01  0.00000E+00 -0.14957E+00
          0.94683E-01  0.00000E+00 -0.15709E+00  0.93262E-01  0.00000E+00 -0.16465E+00  0.91994E-01  0.00000E+00 -0.17217E+00  0.90873E-01  0.00000E+00 -0.17978E+00  0.89862E-01  0.00000E+00 -0.18743E+00  0.88982E-01  0.00000E+00 -0.19494E+00
          0.88162E-01  0.00000E+00 -0.20305E+00  0.87469E-01  0.00000E+00 -0.21007E+00  0.86797E-01  0.00000E+00 -0.21899E+00  0.86205E-01  0.00000E+00 -0.22572E+00  0.85756E-01  0.00000E+00 -0.23330E+00  0.84842E-01  0.00000E+00 -0.24565E+00
          0.13055E+00  0.00000E+00 -0.15225E-02  0.17655E+00  0.00000E+00 -0.87836E-02  0.18777E+00  0.00000E+00 -0.16767E-01  0.18472E+00  0.00000E+00 -0.29351E-01  0.17810E+00  0.00000E+00 -0.40172E-01  0.16694E+00  0.00000E+00 -0.50481E-01
          0.15678E+00  0.00000E+00 -0.60364E-01  0.14777E+00  0.00000E+00 -0.69564E-01  0.14016E+00  0.00000E+00 -0.78413E-01  0.13381E+00  0.00000E+00 -0.86965E-01  0.12847E+00  0.00000E+00 -0.95257E-01  0.12395E+00  0.00000E+00 -0.10337E+00
          0.12008E+00  0.00000E+00 -0.11134E+00  0.11674E+00  0.00000E+00 -0.11918E+00  0.11383E+00  0.00000E+00 -0.12693E+00  0.11129E+00  0.00000E+00 -0.13460E+00  0.10906E+00  0.00000E+00 -0.14221E+00  0.10711E+00  0.00000E+00 -0.14979E+00
          0.10539E+00  0.00000E+00 -0.15734E+00  0.10387E+00  0.00000E+00 -0.16493E+00  0.10253E+00  0.00000E+00 -0.17249E+00  0.10134E+00  0.00000E+00 -0.18014E+00  0.10028E+00  0.00000E+00 -0.18783E+00  0.99364E-01  0.00000E+00 -0.19539E+00
          0.98508E-01  0.00000E+00 -0.20356E+00  0.97795E-01  0.00000E+00 -0.21060E+00  0.97093E-01  0.00000E+00 -0.21963E+00  0.96481E-01  0.00000E+00 -0.22637E+00  0.95992E-01  0.00000E+00 -0.23404E+00  0.94971E-01  0.00000E+00 -0.24649E+00
          0.13885E+00  0.00000E+00 -0.16208E-02  0.18991E+00  0.00000E+00 -0.92756E-02  0.20679E+00  0.00000E+00 -0.16666E-01  0.20348E+00  0.00000E+00 -0.29351E-01  0.19631E+00  0.00000E+00 -0.40204E-01  0.18364E+00  0.00000E+00 -0.50459E-01
          0.17237E+00  0.00000E+00 -0.60338E-01  0.16246E+00  0.00000E+00 -0.69526E-01  0.15412E+00  0.00000E+00 -0.78384E-01  0.14717E+00  0.00000E+00 -0.86966E-01  0.14135E+00  0.00000E+00 -0.95287E-01  0.13642E+00  0.00000E+00 -0.10343E+00
          0.13221E+00  0.00000E+00 -0.11142E+00  0.12857E+00  0.00000E+00 -0.11930E+00  0.12540E+00  0.00000E+00 -0.12709E+00  0.12263E+00  0.00000E+00 -0.13481E+00  0.12022E+00  0.00000E+00 -0.14248E+00  0.11810E+00  0.00000E+00 -0.15011E+00
          0.11624E+00  0.00000E+00 -0.15771E+00  0.11462E+00  0.00000E+00 -0.16535E+00  0.11320E+00  0.00000E+00 -0.17295E+00  0.11195E+00  0.00000E+00 -0.18065E+00  0.11084E+00  0.00000E+00 -0.18838E+00  0.10989E+00  0.00000E+00 -0.19600E+00
          0.10900E+00  0.00000E+00 -0.20423E+00  0.10827E+00  0.00000E+00 -0.21131E+00  0.10753E+00  0.00000E+00 -0.22044E+00  0.10689E+00  0.00000E+00 -0.22719E+00  0.10637E+00  0.00000E+00 -0.23495E+00  0.10524E+00  0.00000E+00 -0.24752E+00
          0.14825E+00  0.00000E+00 -0.16977E-02  0.20263E+00  0.00000E+00 -0.96383E-02  0.22595E+00  0.00000E+00 -0.16681E-01  0.22239E+00  0.00000E+00 -0.29323E-01  0.21474E+00  0.00000E+00 -0.40282E-01  0.20046E+00  0.00000E+00 -0.50460E-01
          0.18810E+00  0.00000E+00 -0.60325E-01  0.17728E+00  0.00000E+00 -0.69503E-01  0.16825E+00  0.00000E+00 -0.78362E-01  0.16072E+00  0.00000E+00 -0.86976E-01  0.15441E+00  0.00000E+00 -0.95341E-01  0.14907E+00  0.00000E+00 -0.10354E+00
          0.14451E+00  0.00000E+00 -0.11158E+00  0.14057E+00  0.00000E+00 -0.11950E+00  0.13715E+00  0.00000E+00 -0.12734E+00  0.13416E+00  0.00000E+00 -0.13511E+00  0.13155E+00  0.00000E+00 -0.14283E+00  0.12926E+00  0.00000E+00 -0.15052E+00
          0.12727E+00  0.00000E+00 -0.15818E+00  0.12553E+00  0.00000E+00 -0.16589E+00  0.12402E+00  0.00000E+00 -0.17354E+00  0.12272E+00  0.00000E+00 -0.18129E+00  0.12156E+00  0.00000E+00 -0.18908E+00  0.12057E+00  0.00000E+00 -0.19675E+00
          0.11965E+00  0.00000E+00 -0.20505E+00  0.11889E+00  0.00000E+00 -0.21217E+00  0.11812E+00  0.00000E+00 -0.22142E+00  0.11745E+00  0.00000E+00 -0.22817E+00  0.11689E+00  0.00000E+00 -0.23604E+00  0.11564E+00  0.00000E+00 -0.24872E+00
          0.15872E+00  0.00000E+00 -0.17869E-02  0.21478E+00  0.00000E+00 -0.98710E-02  0.24535E+00  0.00000E+00 -0.16860E-01  0.24147E+00  0.00000E+00 -0.29267E-01  0.23344E+00  0.00000E+00 -0.40420E-01  0.21745E+00  0.00000E+00 -0.50501E-01
          0.20398E+00  0.00000E+00 -0.60332E-01  0.19229E+00  0.00000E+00 -0.69511E-01  0.18256E+00  0.00000E+00 -0.78360E-01  0.17448E+00  0.00000E+00 -0.87007E-01  0.16769E+00  0.00000E+00 -0.95413E-01  0.16193E+00  0.00000E+00 -0.10367E+00
          0.15701E+00  0.00000E+00 -0.11177E+00  0.15277E+00  0.00000E+00 -0.11975E+00  0.14909E+00  0.00000E+00 -0.12764E+00  0.14588E+00  0.00000E+00 -0.13547E+00  0.14307E+00  0.00000E+00 -0.14325E+00  0.14062E+00  0.00000E+00 -0.15101E+00
          0.13849E+00  0.00000E+00 -0.15874E+00  0.13663E+00  0.00000E+00 -0.16652E+00  0.13503E+00  0.00000E+00 -0.17424E+00  0.13365E+00  0.00000E+00 -0.18206E+00  0.13244E+00  0.00000E+00 -0.18991E+00  0.13141E+00  0.00000E+00 -0.19765E+00
          0.13045E+00  0.00000E+00 -0.20602E+00  0.12968E+00  0.00000E+00 -0.21318E+00  0.12887E+00  0.00000E+00 -0.22256E+00  0.12817E+00  0.00000E+00 -0.22931E+00  0.12757E+00  0.00000E+00 -0.23730E+00  0.12621E+00  0.00000E+00 -0.25011E+00
          0.17016E+00  0.00000E+00 -0.19173E-02  0.22644E+00  0.00000E+00 -0.99853E-02  0.26505E+00  0.00000E+00 -0.17266E-01  0.26072E+00  0.00000E+00 -0.29198E-01  0.25243E+00  0.00000E+00 -0.40629E-01  0.23458E+00  0.00000E+00 -0.50607E-01
          0.22004E+00  0.00000E+00 -0.60361E-01  0.20746E+00  0.00000E+00 -0.69548E-01  0.19707E+00  0.00000E+00 -0.78373E-01  0.18844E+00  0.00000E+00 -0.87048E-01  0.18119E+00  0.00000E+00 -0.95491E-01  0.17503E+00  0.00000E+00 -0.10380E+00
          0.16975E+00  0.00000E+00 -0.11198E+00  0.16519E+00  0.00000E+00 -0.12003E+00  0.16124E+00  0.00000E+00 -0.12800E+00  0.15781E+00  0.00000E+00 -0.13589E+00  0.15481E+00  0.00000E+00 -0.14374E+00  0.15219E+00  0.00000E+00 -0.15158E+00
          0.14991E+00  0.00000E+00 -0.15938E+00  0.14794E+00  0.00000E+00 -0.16723E+00  0.14623E+00  0.00000E+00 -0.17503E+00  0.14477E+00  0.00000E+00 -0.18295E+00  0.14350E+00  0.00000E+00 -0.19086E+00  0.14244E+00  0.00000E+00 -0.19868E+00
          0.14144E+00  0.00000E+00 -0.20714E+00  0.14065E+00  0.00000E+00 -0.21434E+00  0.13979E+00  0.00000E+00 -0.22387E+00  0.13907E+00  0.00000E+00 -0.23061E+00  0.13842E+00  0.00000E+00 -0.23874E+00  0.13694E+00  0.00000E+00 -0.25168E+00
          0.18255E+00  0.00000E+00 -0.21122E-02  0.23778E+00  0.00000E+00 -0.10016E-01  0.28500E+00  0.00000E+00 -0.17909E-01  0.28018E+00  0.00000E+00 -0.29108E-01  0.27179E+00  0.00000E+00 -0.40905E-01  0.25189E+00  0.00000E+00 -0.50796E-01
          0.23628E+00  0.00000E+00 -0.60427E-01  0.22284E+00  0.00000E+00 -0.69641E-01  0.21179E+00  0.00000E+00 -0.78422E-01  0.20264E+00  0.00000E+00 -0.87121E-01  0.19493E+00  0.00000E+00 -0.95598E-01  0.18838E+00  0.00000E+00 -0.10395E+00
          0.18275E+00  0.00000E+00 -0.11220E+00  0.17788E+00  0.00000E+00 -0.12034E+00  0.17365E+00  0.00000E+00 -0.12839E+00  0.16997E+00  0.00000E+00 -0.13637E+00  0.16677E+00  0.00000E+00 -0.14430E+00  0.16399E+00  0.00000E+00 -0.15221E+00
          0.16156E+00  0.00000E+00 -0.16010E+00  0.15947E+00  0.00000E+00 -0.16804E+00  0.15766E+00  0.00000E+00 -0.17592E+00  0.15611E+00  0.00000E+00 -0.18394E+00  0.15477E+00  0.00000E+00 -0.19193E+00  0.15365E+00  0.00000E+00 -0.19985E+00
          0.15262E+00  0.00000E+00 -0.20840E+00  0.15180E+00  0.00000E+00 -0.21565E+00  0.15091E+00  0.00000E+00 -0.22535E+00  0.15016E+00  0.00000E+00 -0.23207E+00  0.14947E+00  0.00000E+00 -0.24035E+00  0.14786E+00  0.00000E+00 -0.25345E+00
          0.19581E+00  0.00000E+00 -0.24002E-02  0.24905E+00  0.00000E+00 -0.10002E-01  0.30512E+00  0.00000E+00 -0.18919E-01  0.29987E+00  0.00000E+00 -0.29085E-01  0.29150E+00  0.00000E+00 -0.41271E-01  0.26940E+00  0.00000E+00 -0.51097E-01