<?xml version="1.0"?>
<VTKFile type="UnstructuredGrid" version="0.1" byte_order="LittleEndian" compressor="vtkZLibDataCompressor">
<UnstructuredGrid>
  <Piece NumberOfPoints="1800"        NumberOfCells="1"      >
    <Points>
      <DataArray type="Float32" NumberOfComponents="3" format="ascii" >
        0.49585E-02  0.00000E+00  0.49227E-02  0.49627E-02  0.00000E+00  0.15039E-01  0.50099E-02  0.00000E+00  0.24908E-01  0.49756E-02  0.00000E+00  0.34912E-01  0.49857E-02  0.00000E+00  0.44878E-01  0.49815E-02  0.00000E+00  0.54857E-01
        0.49835E-02  0.00000E+00  0.64833E-01  0.49827E-02  0.00000E+00  0.74811E-01  0.49832E-02  0.00000E+00  0.84789E-01  0.49835E-02  0.00000E+00  0.94768E-01  0.49837E-02  0.00000E+00  0.10475E+00  0.49840E-02  0.00000E+00  0.11473E+00
        0.49844E-02  0.00000E+00  0.12471E+00  0.49847E-02  0.00000E+00  0.13469E+00  0.49851E-02  0.00000E+00  0.14467E+00  0.49855E-02  0.00000E+00  0.15466E+00  0.49860E-02  0.00000E+00  0.16464E+00  0.49866E-02  0.00000E+00  0.17463E+00
        0.49873E-02  0.00000E+00  0.18462E+00  0.49880E-02  0.00000E+00  0.19460E+00  0.49887E-02  0.00000E+00  0.20459E+00  0.49895E-02  0.00000E+00  0.21458E+00  0.49905E-02  0.00000E+00  0.22457E+00  0.49915E-02  0.00000E+00  0.23456E+00
        0.49928E-02  0.00000E+00  0.24456E+00  0.49936E-02  0.00000E+00  0.25455E+00  0.49958E-02  0.00000E+00  0.26455E+00  0.49964E-02  0.00000E+00  0.27454E+00  0.49998E-02  0.00000E+00  0.28454E+00  0.50041E-02  0.00000E+00  0.29452E+00
        0.15128E-01  0.00000E+00  0.49471E-02  0.15053E-01  0.00000E+00  0.14982E-01  0.15073E-01  0.00000E+00  0.24889E-01  0.15062E-01  0.00000E+00  0.34920E-01  0.15067E-01  0.00000E+00  0.44865E-01  0.15062E-01  0.00000E+00  0.54851E-01
        0.15062E-01  0.00000E+00  0.64819E-01  0.15060E-01  0.00000E+00  0.74796E-01  0.15059E-01  0.00000E+00  0.84771E-01  0.15057E-01  0.00000E+00  0.94748E-01  0.15056E-01  0.00000E+00  0.10473E+00  0.15054E-01  0.00000E+00  0.11470E+00
        0.15052E-01  0.00000E+00  0.12468E+00  0.15050E-01  0.00000E+00  0.13466E+00  0.15048E-01  0.00000E+00  0.14464E+00  0.15046E-01  0.00000E+00  0.15463E+00  0.15044E-01  0.00000E+00  0.16461E+00  0.15042E-01  0.00000E+00  0.17459E+00
        0.15040E-01  0.00000E+00  0.18458E+00  0.15037E-01  0.00000E+00  0.19456E+00  0.15035E-01  0.00000E+00  0.20455E+00  0.15032E-01  0.00000E+00  0.21454E+00  0.15029E-01  0.00000E+00  0.22453E+00  0.15026E-01  0.00000E+00  0.23452E+00
        0.15023E-01  0.00000E+00  0.24451E+00  0.15019E-01  0.00000E+00  0.25451E+00  0.15016E-01  0.00000E+00  0.26450E+00  0.15012E-01  0.00000E+00  0.27450E+00  0.15011E-01  0.00000E+00  0.28449E+00  0.15009E-01  0.00000E+00  0.29450E+00
        0.25039E-01  0.00000E+00  0.50042E-02  0.25007E-01  0.00000E+00  0.15023E-01  0.25019E-01  0.00000E+00  0.24927E-01  0.25010E-01  0.00000E+00  0.34935E-01  0.25011E-01  0.00000E+00  0.44882E-01  0.25011E-01  0.00000E+00  0.54869E-01
        0.25009E-01  0.00000E+00  0.64835E-01  0.25009E-01  0.00000E+00  0.74811E-01  0.25008E-01  0.00000E+00  0.84785E-01  0.25008E-01  0.00000E+00  0.94760E-01  0.25007E-01  0.00000E+00  0.10474E+00  0.25007E-01  0.00000E+00  0.11471E+00
        0.25006E-01  0.00000E+00  0.12469E+00  0.25005E-01  0.00000E+00  0.13467E+00  0.25005E-01  0.00000E+00  0.14465E+00  0.25004E-01  0.00000E+00  0.15463E+00  0.25003E-01  0.00000E+00  0.16461E+00  0.25003E-01  0.00000E+00  0.17460E+00
        0.25002E-01  0.00000E+00  0.18458E+00  0.25002E-01  0.00000E+00  0.19457E+00  0.25001E-01  0.00000E+00  0.20455E+00  0.25001E-01  0.00000E+00  0.21454E+00  0.25001E-01  0.00000E+00  0.22453E+00  0.25000E-01  0.00000E+00  0.23452E+00
        0.25000E-01  0.00000E+00  0.24451E+00  0.25000E-01  0.00000E+00  0.25451E+00  0.25001E-01  0.00000E+00  0.26450E+00  0.25000E-01  0.00000E+00  0.27450E+00  0.25003E-01  0.00000E+00  0.28450E+00  0.25005E-01  0.00000E+00  0.29450E+00
        0.35077E-01  0.00000E+00  0.49643E-02  0.35084E-01  0.00000E+00  0.15013E-01  0.35078E-01  0.00000E+00  0.24921E-01  0.35075E-01  0.00000E+00  0.34938E-01  0.35075E-01  0.00000E+00  0.44885E-01  0.35073E-01  0.00000E+00  0.54871E-01
        0.35071E-01  0.00000E+00  0.64837E-01  0.35070E-01  0.00000E+00  0.74813E-01  0.35068E-01  0.00000E+00  0.84786E-01  0.35067E-01  0.00000E+00  0.94761E-01  0.35065E-01  0.00000E+00  0.10474E+00  0.35063E-01  0.00000E+00  0.11471E+00
        0.35061E-01  0.00000E+00  0.12469E+00  0.35059E-01  0.00000E+00  0.13467E+00  0.35057E-01  0.00000E+00  0.14465E+00  0.35055E-01  0.00000E+00  0.15463E+00  0.35052E-01  0.00000E+00  0.16461E+00  0.35050E-01  0.00000E+00  0.17459E+00
        0.35047E-01  0.00000E+00  0.18458E+00  0.35044E-01  0.00000E+00  0.19456E+00  0.35041E-01  0.00000E+00  0.20455E+00  0.35038E-01  0.00000E+00  0.21454E+00  0.35034E-01  0.00000E+00  0.22453E+00  0.35031E-01  0.00000E+00  0.23452E+00
        0.35027E-01  0.00000E+00  0.24451E+00  0.35022E-01  0.00000E+00  0.25450E+00  0.35018E-01  0.00000E+00  0.26450E+00  0.35014E-01  0.00000E+00  0.27449E+00  0.35010E-01  0.00000E+00  0.28449E+00  0.35008E-01  0.00000E+00  0.29449E+00
        0.45079E-01  0.00000E+00  0.49757E-02  0.45072E-01  0.00000E+00  0.15020E-01  0.45069E-01  0.00000E+00  0.24924E-01  0.45068E-01  0.00000E+00  0.34940E-01  0.45067E-01  0.00000E+00  0.44888E-01  0.45065E-01  0.00000E+00  0.54873E-01
        0.45064E-01  0.00000E+00  0.64839E-01  0.45061E-01  0.00000E+00  0.74816E-01  0.45059E-01  0.00000E+00  0.84788E-01  0.45057E-01  0.00000E+00  0.94763E-01  0.45055E-01  0.00000E+00  0.10474E+00  0.45052E-01  0.00000E+00  0.11471E+00
        0.45050E-01  0.00000E+00  0.12469E+00  0.45048E-01  0.00000E+00  0.13467E+00  0.45045E-01  0.00000E+00  0.14465E+00  0.45042E-01  0.00000E+00  0.15463E+00  0.45040E-01  0.00000E+00  0.16461E+00  0.45037E-01  0.00000E+00  0.17459E+00
        0.45034E-01  0.00000E+00  0.18458E+00  0.45032E-01  0.00000E+00  0.19456E+00  0.45029E-01  0.00000E+00  0.20455E+00  0.45026E-01  0.00000E+00  0.21454E+00  0.45023E-01  0.00000E+00  0.22453E+00  0.45020E-01  0.00000E+00  0.23452E+00
        0.45017E-01  0.00000E+00  0.24451E+00  0.45014E-01  0.00000E+00  0.25450E+00  0.45011E-01  0.00000E+00  0.26450E+00  0.45009E-01  0.00000E+00  0.27449E+00  0.45007E-01  0.00000E+00  0.28449E+00  0.45008E-01  0.00000E+00  0.29449E+00
        0.55095E-01  0.00000E+00  0.49707E-02  0.55100E-01  0.00000E+00  0.15016E-01  0.55101E-01  0.00000E+00  0.24924E-01  0.55101E-01  0.00000E+00  0.34939E-01  0.55100E-01  0.00000E+00  0.44887E-01  0.55098E-01  0.00000E+00  0.54872E-01
        0.55096E-01  0.00000E+00  0.64838E-01  0.55094E-01  0.00000E+00  0.74814E-01  0.55092E-01  0.00000E+00  0.84787E-01  0.55089E-01  0.00000E+00  0.94762E-01  0.55086E-01  0.00000E+00  0.10474E+00  0.55083E-01  0.00000E+00  0.11471E+00
        0.55081E-01  0.00000E+00  0.12469E+00  0.55077E-01  0.00000E+00  0.13467E+00  0.55074E-01  0.00000E+00  0.14465E+00  0.55071E-01  0.00000E+00  0.15463E+00  0.55067E-01  0.00000E+00  0.16461E+00  0.55063E-01  0.00000E+00  0.17459E+00
        0.55059E-01  0.00000E+00  0.18457E+00  0.55055E-01  0.00000E+00  0.19456E+00  0.55051E-01  0.00000E+00  0.20455E+00  0.55046E-01  0.00000E+00  0.21453E+00  0.55042E-01  0.00000E+00  0.22452E+00  0.55037E-01  0.00000E+00  0.23451E+00
        0.55032E-01  0.00000E+00  0.24450E+00  0.55027E-01  0.00000E+00  0.25450E+00  0.55021E-01  0.00000E+00  0.26449E+00  0.55016E-01  0.00000E+00  0.27449E+00  0.55012E-01  0.00000E+00  0.28448E+00  0.55010E-01  0.00000E+00  0.29448E+00
        0.65110E-01  0.00000E+00  0.49722E-02  0.65112E-01  0.00000E+00  0.15015E-01  0.65113E-01  0.00000E+00  0.24921E-01  0.65113E-01  0.00000E+00  0.34937E-01  0.65113E-01  0.00000E+00  0.44885E-01  0.65110E-01  0.00000E+00  0.54870E-01
        0.65108E-01  0.00000E+00  0.64836E-01  0.65105E-01  0.00000E+00  0.74812E-01  0.65102E-01  0.00000E+00  0.84785E-01  0.65098E-01  0.00000E+00  0.94759E-01  0.65095E-01  0.00000E+00  0.10473E+00  0.65091E-01  0.00000E+00  0.11471E+00
        0.65087E-01  0.00000E+00  0.12469E+00  0.65083E-01  0.00000E+00  0.13467E+00  0.65079E-01  0.00000E+00  0.14464E+00  0.65074E-01  0.00000E+00  0.15462E+00  0.65070E-01  0.00000E+00  0.16461E+00  0.65065E-01  0.00000E+00  0.17459E+00
        0.65061E-01  0.00000E+00  0.18457E+00  0.65056E-01  0.00000E+00  0.19456E+00  0.65051E-01  0.00000E+00  0.20454E+00  0.65045E-01  0.00000E+00  0.21453E+00  0.65040E-01  0.00000E+00  0.22452E+00  0.65035E-01  0.00000E+00  0.23451E+00
        0.65030E-01  0.00000E+00  0.24450E+00  0.65024E-01  0.00000E+00  0.25449E+00  0.65019E-01  0.00000E+00  0.26449E+00  0.65015E-01  0.00000E+00  0.27448E+00  0.65012E-01  0.00000E+00  0.28448E+00  0.65010E-01  0.00000E+00  0.29448E+00
        0.75126E-01  0.00000E+00  0.49707E-02  0.75132E-01  0.00000E+00  0.15014E-01  0.75135E-01  0.00000E+00  0.24920E-01  0.75136E-01  0.00000E+00  0.34936E-01  0.75136E-01  0.00000E+00  0.44883E-01  0.75134E-01  0.00000E+00  0.54868E-01
        0.75131E-01  0.00000E+00  0.64834E-01  0.75128E-01  0.00000E+00  0.74810E-01  0.75125E-01  0.00000E+00  0.84782E-01  0.75121E-01  0.00000E+00  0.94756E-01  0.75117E-01  0.00000E+00  0.10473E+00  0.75113E-01  0.00000E+00  0.11471E+00
        0.75109E-01  0.00000E+00  0.12468E+00  0.75104E-01  0.00000E+00  0.13466E+00  0.75099E-01  0.00000E+00  0.14464E+00  0.75094E-01  0.00000E+00  0.15462E+00  0.75089E-01  0.00000E+00  0.16460E+00  0.75084E-01  0.00000E+00  0.17458E+00
        0.75078E-01  0.00000E+00  0.18457E+00  0.75072E-01  0.00000E+00  0.19455E+00  0.75066E-01  0.00000E+00  0.20454E+00  0.75060E-01  0.00000E+00  0.21452E+00  0.75053E-01  0.00000E+00  0.22451E+00  0.75047E-01  0.00000E+00  0.23450E+00
        0.75040E-01  0.00000E+00  0.24449E+00  0.75033E-01  0.00000E+00  0.25449E+00  0.75027E-01  0.00000E+00  0.26448E+00  0.75020E-01  0.00000E+00  0.27447E+00  0.75015E-01  0.00000E+00  0.28447E+00  0.75012E-01  0.00000E+00  0.29447E+00
[...]
<PointData>
      <DataArray type="Float32" Name="Velocity vectors"  NumberOfComponents="3"  format="ascii" >
          0.18356E-02  0.00000E+00 -0.14945E-02  0.21560E-02  0.00000E+00 -0.53870E-03  0.18904E-02  0.00000E+00 -0.39655E-02  0.17757E-02  0.00000E+00 -0.77022E-02  0.11168E-02  0.00000E+00 -0.94340E-02  0.10611E-02  0.00000E+00 -0.12216E-01
          0.94086E-03  0.00000E+00 -0.14134E-01  0.65710E-03  0.00000E+00 -0.16145E-01  0.60361E-03  0.00000E+00 -0.18010E-01  0.39371E-03  0.00000E+00 -0.19872E-01  0.19782E-03  0.00000E+00 -0.21648E-01  0.96019E-04  0.00000E+00 -0.23662E-01
         -0.58902E-04  0.00000E+00 -0.25476E-01 -0.95812E-04  0.00000E+00 -0.27375E-01 -0.14833E-03  0.00000E+00 -0.29060E-01 -0.15146E-03  0.00000E+00 -0.30631E-01 -0.16055E-03  0.00000E+00 -0.32019E-01 -0.17715E-03  0.00000E+00 -0.33293E-01
         -0.19250E-03  0.00000E+00 -0.34485E-01 -0.22264E-03  0.00000E+00 -0.35608E-01 -0.23336E-03  0.00000E+00 -0.36684E-01 -0.23711E-03  0.00000E+00 -0.37662E-01 -0.22624E-03  0.00000E+00 -0.38562E-01 -0.21410E-03  0.00000E+00 -0.39347E-01
         -0.19209E-03  0.00000E+00 -0.40016E-01 -0.20303E-03  0.00000E+00 -0.40615E-01 -0.14196E-03  0.00000E+00 -0.41104E-01 -0.14980E-03  0.00000E+00 -0.41773E-01  0.94247E-04  0.00000E+00 -0.41881E-01  0.24203E-03  0.00000E+00 -0.43133E-01
          0.76479E-02  0.00000E+00 -0.34308E-03  0.77091E-02  0.00000E+00 -0.68183E-03  0.68899E-02  0.00000E+00 -0.51973E-02  0.63570E-02  0.00000E+00 -0.76422E-02  0.54816E-02  0.00000E+00 -0.94828E-02  0.51325E-02  0.00000E+00 -0.12392E-01
          0.46525E-02  0.00000E+00 -0.14288E-01  0.43751E-02  0.00000E+00 -0.16366E-01  0.39813E-02  0.00000E+00 -0.18194E-01  0.37117E-02  0.00000E+00 -0.20178E-01  0.33454E-02  0.00000E+00 -0.21848E-01  0.30871E-02  0.00000E+00 -0.24028E-01
          0.28277E-02  0.00000E+00 -0.25775E-01  0.26537E-02  0.00000E+00 -0.27796E-01  0.25113E-02  0.00000E+00 -0.29484E-01  0.24017E-02  0.00000E+00 -0.31123E-01  0.22948E-02  0.00000E+00 -0.32552E-01  0.21769E-02  0.00000E+00 -0.33868E-01
          0.20502E-02  0.00000E+00 -0.35099E-01  0.19133E-02  0.00000E+00 -0.36249E-01  0.17752E-02  0.00000E+00 -0.37367E-01  0.16414E-02  0.00000E+00 -0.38374E-01  0.15166E-02  0.00000E+00 -0.39323E-01  0.13813E-02  0.00000E+00 -0.40151E-01
          0.12325E-02  0.00000E+00 -0.40868E-01  0.10256E-02  0.00000E+00 -0.41489E-01  0.90603E-03  0.00000E+00 -0.41972E-01  0.70627E-03  0.00000E+00 -0.42505E-01  0.77409E-03  0.00000E+00 -0.42632E-01  0.48172E-03  0.00000E+00 -0.42954E-01
          0.91261E-02  0.00000E+00 -0.92454E-03  0.88470E-02  0.00000E+00 -0.13868E-02  0.78855E-02  0.00000E+00 -0.53336E-02  0.69552E-02  0.00000E+00 -0.75005E-02  0.61988E-02  0.00000E+00 -0.97661E-02  0.54716E-02  0.00000E+00 -0.12433E-01
          0.49922E-02  0.00000E+00 -0.14322E-01  0.45101E-02  0.00000E+00 -0.16516E-01  0.40435E-02  0.00000E+00 -0.18366E-01  0.36310E-02  0.00000E+00 -0.20454E-01  0.32335E-02  0.00000E+00 -0.22146E-01  0.28272E-02  0.00000E+00 -0.24409E-01
          0.25331E-02  0.00000E+00 -0.26121E-01  0.22416E-02  0.00000E+00 -0.28216E-01  0.20260E-02  0.00000E+00 -0.29899E-01  0.18278E-02  0.00000E+00 -0.31612E-01  0.16519E-02  0.00000E+00 -0.33094E-01  0.14809E-02  0.00000E+00 -0.34479E-01
          0.13101E-02  0.00000E+00 -0.35765E-01  0.11427E-02  0.00000E+00 -0.36948E-01  0.98989E-03  0.00000E+00 -0.38098E-01  0.84814E-03  0.00000E+00 -0.39121E-01  0.71898E-03  0.00000E+00 -0.40099E-01  0.60188E-03  0.00000E+00 -0.40935E-01
          0.50733E-03  0.00000E+00 -0.41710E-01  0.37952E-03  0.00000E+00 -0.42302E-01  0.33900E-03  0.00000E+00 -0.42804E-01  0.29706E-03  0.00000E+00 -0.43142E-01  0.41413E-03  0.00000E+00 -0.43282E-01  0.26338E-03  0.00000E+00 -0.43491E-01
          0.83967E-02  0.00000E+00 -0.16316E-02  0.97875E-02  0.00000E+00 -0.23827E-02  0.90490E-02  0.00000E+00 -0.61806E-02  0.82831E-02  0.00000E+00 -0.79709E-02  0.76284E-02  0.00000E+00 -0.10408E-01  0.70838E-02  0.00000E+00 -0.12830E-01
          0.68072E-02  0.00000E+00 -0.14660E-01  0.64139E-02  0.00000E+00 -0.17021E-01  0.60515E-02  0.00000E+00 -0.18804E-01  0.58150E-02  0.00000E+00 -0.20959E-01  0.54405E-02  0.00000E+00 -0.22749E-01  0.51508E-02  0.00000E+00 -0.24986E-01
          0.48854E-02  0.00000E+00 -0.26736E-01  0.46251E-02  0.00000E+00 -0.28844E-01  0.44326E-02  0.00000E+00 -0.30535E-01  0.42333E-02  0.00000E+00 -0.32298E-01  0.40581E-02  0.00000E+00 -0.33820E-01  0.38692E-02  0.00000E+00 -0.35267E-01
          0.36733E-02  0.00000E+00 -0.36602E-01  0.34575E-02  0.00000E+00 -0.37835E-01  0.32257E-02  0.00000E+00 -0.39025E-01  0.29806E-02  0.00000E+00 -0.40095E-01  0.27095E-02  0.00000E+00 -0.41113E-01  0.24379E-02  0.00000E+00 -0.41969E-01
          0.21642E-02  0.00000E+00 -0.42788E-01  0.18788E-02  0.00000E+00 -0.43426E-01  0.15569E-02  0.00000E+00 -0.43936E-01  0.12775E-02  0.00000E+00 -0.44288E-01  0.92330E-03  0.00000E+00 -0.44660E-01  0.67460E-03  0.00000E+00 -0.44652E-01
          0.78881E-02  0.00000E+00 -0.25690E-02  0.93580E-02  0.00000E+00 -0.34328E-02  0.88745E-02  0.00000E+00 -0.66890E-02  0.84019E-02  0.00000E+00 -0.83109E-02  0.81033E-02  0.00000E+00 -0.10825E-01  0.78933E-02  0.00000E+00 -0.12970E-01
          0.78182E-02  0.00000E+00 -0.14815E-01  0.75380E-02  0.00000E+00 -0.17322E-01  0.73640E-02  0.00000E+00 -0.18930E-01  0.71779E-02  0.00000E+00 -0.21237E-01  0.68143E-02  0.00000E+00 -0.23068E-01  0.65769E-02  0.00000E+00 -0.25239E-01
          0.62533E-02  0.00000E+00 -0.27060E-01  0.59627E-02  0.00000E+00 -0.29114E-01  0.56921E-02  0.00000E+00 -0.30818E-01  0.53972E-02  0.00000E+00 -0.32592E-01  0.51116E-02  0.00000E+00 -0.34127E-01  0.47903E-02  0.00000E+00 -0.35611E-01
          0.44497E-02  0.00000E+00 -0.36970E-01  0.40784E-02  0.00000E+00 -0.38240E-01  0.36866E-02  0.00000E+00 -0.39441E-01  0.32967E-02  0.00000E+00 -0.40536E-01  0.28844E-02  0.00000E+00 -0.41565E-01  0.24796E-02  0.00000E+00 -0.42421E-01
          0.20820E-02  0.00000E+00 -0.43210E-01  0.17468E-02  0.00000E+00 -0.43870E-01  0.13964E-02  0.00000E+00 -0.44382E-01  0.10984E-02  0.00000E+00 -0.44745E-01  0.79599E-03  0.00000E+00 -0.45080E-01  0.69940E-03  0.00000E+00 -0.45126E-01
          0.56405E-02  0.00000E+00 -0.23116E-02  0.67912E-02  0.00000E+00 -0.32825E-02  0.71281E-02  0.00000E+00 -0.66637E-02  0.72501E-02  0.00000E+00 -0.81398E-02  0.75934E-02  0.00000E+00 -0.10684E-01  0.78751E-02  0.00000E+00 -0.12753E-01
          0.81150E-02  0.00000E+00 -0.14705E-01  0.82548E-02  0.00000E+00 -0.17253E-01  0.84090E-02  0.00000E+00 -0.18803E-01  0.84127E-02  0.00000E+00 -0.21331E-01  0.83196E-02  0.00000E+00 -0.23142E-01  0.82613E-02  0.00000E+00 -0.25339E-01
          0.80711E-02  0.00000E+00 -0.27244E-01  0.78980E-02  0.00000E+00 -0.29259E-01  0.76901E-02  0.00000E+00 -0.31021E-01  0.74349E-02  0.00000E+00 -0.32819E-01  0.71592E-02  0.00000E+00 -0.34395E-01  0.68204E-02  0.00000E+00 -0.35936E-01
          0.64473E-02  0.00000E+00 -0.37334E-01  0.60277E-02  0.00000E+00 -0.38660E-01  0.55624E-02  0.00000E+00 -0.39886E-01  0.50767E-02  0.00000E+00 -0.41010E-01  0.45635E-02  0.00000E+00 -0.42071E-01  0.40220E-02  0.00000E+00 -0.42963E-01
          0.34386E-02  0.00000E+00 -0.43749E-01  0.28801E-02  0.00000E+00 -0.44411E-01  0.23286E-02  0.00000E+00 -0.44941E-01  0.18138E-02  0.00000E+00 -0.45363E-01  0.12852E-02  0.00000E+00 -0.45722E-01  0.91476E-03  0.00000E+00 -0.45669E-01
          0.46517E-02  0.00000E+00 -0.17989E-02  0.57822E-02  0.00000E+00 -0.27372E-02  0.68025E-02  0.00000E+00 -0.60909E-02  0.73718E-02  0.00000E+00 -0.75830E-02  0.80649E-02  0.00000E+00 -0.10188E-01  0.85643E-02  0.00000E+00 -0.12392E-01
          0.90424E-02  0.00000E+00 -0.14341E-01  0.94419E-02  0.00000E+00 -0.16963E-01  0.96447E-02  0.00000E+00 -0.18631E-01  0.97584E-02  0.00000E+00 -0.21293E-01  0.97663E-02  0.00000E+00 -0.23125E-01  0.97211E-02  0.00000E+00 -0.25414E-01
          0.95470E-02  0.00000E+00 -0.27399E-01  0.93594E-02  0.00000E+00 -0.29416E-01  0.91010E-02  0.00000E+00 -0.31257E-01  0.87922E-02  0.00000E+00 -0.33081E-01  0.84453E-02  0.00000E+00 -0.34713E-01  0.80284E-02  0.00000E+00 -0.36312E-01
          0.75678E-02  0.00000E+00 -0.37748E-01  0.70540E-02  0.00000E+00 -0.39129E-01  0.64902E-02  0.00000E+00 -0.40395E-01  0.58812E-02  0.00000E+00 -0.41546E-01  0.52448E-02  0.00000E+00 -0.42623E-01  0.45963E-02  0.00000E+00 -0.43557E-01
          0.39155E-02  0.00000E+00 -0.44360E-01  0.32411E-02  0.00000E+00 -0.45024E-01  0.25639E-02  0.00000E+00 -0.45535E-01  0.19494E-02  0.00000E+00 -0.45944E-01  0.14119E-02  0.00000E+00 -0.46277E-01  0.10222E-02  0.00000E+00 -0.46388E-01
          0.51692E-02  0.00000E+00 -0.10539E-02  0.63613E-02  0.00000E+00 -0.15300E-02  0.76255E-02  0.00000E+00 -0.51617E-02  0.81544E-02  0.00000E+00 -0.68553E-02  0.88918E-02  0.00000E+00 -0.95101E-02  0.95288E-02  0.00000E+00 -0.11861E-01
          0.10050E-01  0.00000E+00 -0.13801E-01  0.10402E-01  0.00000E+00 -0.16645E-01  0.10567E-01  0.00000E+00 -0.18416E-01  0.10690E-01  0.00000E+00 -0.21165E-01  0.10662E-01  0.00000E+00 -0.23101E-01  0.10563E-01  0.00000E+00 -0.25483E-01
          0.10371E-01  0.00000E+00 -0.27539E-01  0.10147E-01  0.00000E+00 -0.29591E-01  0.98552E-02  0.00000E+00 -0.31509E-01  0.95163E-02  0.00000E+00 -0.33366E-01  0.91348E-02  0.00000E+00 -0.35061E-01  0.86921E-02  0.00000E+00 -0.36717E-01
          0.82084E-02  0.00000E+00 -0.38203E-01  0.76705E-02  0.00000E+00 -0.39639E-01  0.70931E-02  0.00000E+00 -0.40955E-01  0.64642E-02  0.00000E+00 -0.42162E-01  0.57915E-02  0.00000E+00 -0.43260E-01  0.51068E-02  0.00000E+00 -0.44219E-01
          0.44076E-02  0.00000E+00 -0.45042E-01  0.37199E-02  0.00000E+00 -0.45743E-01  0.30086E-02  0.00000E+00 -0.46299E-01  0.22930E-02  0.00000E+00 -0.46706E-01  0.16184E-02  0.00000E+00 -0.47007E-01  0.10921E-02  0.00000E+00 -0.47198E-01
          0.77177E-02  0.00000E+00 -0.93233E-04  0.93720E-02  0.00000E+00 -0.46292E-03  0.10594E-01  0.00000E+00 -0.43854E-02  0.10955E-01  0.00000E+00 -0.63043E-02  0.11667E-01  0.00000E+00 -0.88102E-02  0.12179E-01  0.00000E+00 -0.11438E-01
          0.12411E-01  0.00000E+00 -0.13481E-01  0.12604E-01  0.00000E+00 -0.16470E-01  0.12620E-01  0.00000E+00 -0.18332E-01  0.12568E-01  0.00000E+00 -0.21183E-01  0.12374E-01  0.00000E+00 -0.23242E-01  0.12129E-01  0.00000E+00 -0.25685E-01
          0.11808E-01  0.00000E+00 -0.27808E-01  0.11451E-01  0.00000E+00 -0.29902E-01  0.11035E-01  0.00000E+00 -0.31886E-01  0.10579E-01  0.00000E+00 -0.33778E-01  0.10081E-01  0.00000E+00 -0.35530E-01  0.95345E-02  0.00000E+00 -0.37229E-01
          0.89575E-02  0.00000E+00 -0.38759E-01  0.83357E-02  0.00000E+00 -0.40238E-01  0.76879E-02  0.00000E+00 -0.41588E-01  0.70040E-02  0.00000E+00 -0.42844E-01  0.62794E-02  0.00000E+00 -0.43972E-01  0.55200E-02  0.00000E+00 -0.44957E-01
          0.47243E-02  0.00000E+00 -0.45786E-01  0.39470E-02  0.00000E+00 -0.46489E-01  0.31929E-02  0.00000E+00 -0.47082E-01  0.24632E-02  0.00000E+00 -0.47522E-01  0.17756E-02  0.00000E+00 -0.47820E-01  0.12177E-02  0.00000E+00 -0.48011E-01
          0.12206E-01  0.00000E+00  0.38688E-03  0.14653E-01  0.00000E+00  0.33974E-03  0.15633E-01  0.00000E+00 -0.38931E-02  0.15603E-01  0.00000E+00 -0.59380E-02  0.15880E-01  0.00000E+00 -0.83635E-02  0.15928E-01  0.00000E+00 -0.11400E-01
          0.15800E-01  0.00000E+00 -0.13413E-01  0.15729E-01  0.00000E+00 -0.16477E-01  0.15419E-01  0.00000E+00 -0.18490E-01  0.15069E-01  0.00000E+00 -0.21405E-01  0.14633E-01  0.00000E+00 -0.23556E-01  0.14146E-01  0.00000E+00 -0.26046E-01
          0.13607E-01  0.00000E+00 -0.28222E-01  0.13046E-01  0.00000E+00 -0.30348E-01  0.12452E-01  0.00000E+00 -0.32376E-01  0.11844E-01  0.00000E+00 -0.34290E-01  0.11218E-01  0.00000E+00 -0.36083E-01  0.10569E-01  0.00000E+00 -0.37808E-01
          0.99104E-02  0.00000E+00 -0.39367E-01  0.92276E-02  0.00000E+00 -0.40875E-01  0.85335E-02  0.00000E+00 -0.42245E-01  0.78123E-02  0.00000E+00 -0.43540E-01  0.70625E-02  0.00000E+00 -0.44704E-01  0.62773E-02  0.00000E+00 -0.45751E-01
          0.54278E-02  0.00000E+00 -0.46628E-01  0.45505E-02  0.00000E+00 -0.47347E-01  0.36744E-02  0.00000E+00 -0.47956E-01  0.28247E-02  0.00000E+00 -0.48412E-01  0.20191E-02  0.00000E+00 -0.48707E-01  0.13653E-02  0.00000E+00 -0.49041E-01
          0.17517E-01  0.00000E+00  0.43074E-03  0.21024E-01  0.00000E+00  0.44232E-03  0.21548E-01  0.00000E+00 -0.39234E-02  0.20875E-01  0.00000E+00 -0.61596E-02  0.20588E-01  0.00000E+00 -0.84896E-02  0.20231E-01  0.00000E+00 -0.11770E-01
          0.19729E-01  0.00000E+00 -0.13700E-01  0.19262E-01  0.00000E+00 -0.16863E-01  0.18563E-01  0.00000E+00 -0.19029E-01  0.17888E-01  0.00000E+00 -0.21933E-01  0.17149E-01  0.00000E+00 -0.24178E-01  0.16360E-01  0.00000E+00 -0.26701E-01
          0.15559E-01  0.00000E+00 -0.28904E-01  0.14749E-01  0.00000E+00 -0.31048E-01  0.13932E-01  0.00000E+00 -0.33089E-01  0.13128E-01  0.00000E+00 -0.35003E-01  0.12327E-01  0.00000E+00 -0.36809E-01  0.11532E-01  0.00000E+00 -0.38533E-01
          0.10747E-01  0.00000E+00 -0.40103E-01  0.99575E-02  0.00000E+00 -0.41620E-01  0.91713E-02  0.00000E+00 -0.43003E-01  0.83653E-02  0.00000E+00 -0.44327E-01  0.75391E-02  0.00000E+00 -0.45510E-01  0.66963E-02  0.00000E+00 -0.46603E-01
          0.58119E-02  0.00000E+00 -0.47544E-01  0.48983E-02  0.00000E+00 -0.48314E-01  0.39728E-02  0.00000E+00 -0.48966E-01  0.30595E-02  0.00000E+00 -0.49464E-01  0.21678E-02  0.00000E+00 -0.49780E-01  0.14520E-02  0.00000E+00 -0.50069E-01
          0.22409E-01  0.00000E+00 -0.43998E-04  0.26772E-01  0.00000E+00 -0.14609E-03  0.26856E-01  0.00000E+00 -0.46151E-02  0.25776E-01  0.00000E+00 -0.69028E-02  0.25076E-01  0.00000E+00 -0.90576E-02  0.24331E-01  0.00000E+00 -0.12530E-01
          0.23428E-01  0.00000E+00 -0.14410E-01  0.22581E-01  0.00000E+00 -0.17640E-01  0.21556E-01  0.00000E+00 -0.19900E-01  0.20581E-01  0.00000E+00 -0.22761E-01  0.19548E-01  0.00000E+00 -0.25094E-01  0.18486E-01  0.00000E+00 -0.27614E-01
          0.17444E-01  0.00000E+00 -0.29816E-01  0.16402E-01  0.00000E+00 -0.31961E-01  0.15377E-01  0.00000E+00 -0.33983E-01  0.14382E-01  0.00000E+00 -0.35877E-01  0.13406E-01  0.00000E+00 -0.37672E-01  0.12457E-01  0.00000E+00 -0.39372E-01
          0.11535E-01  0.00000E+00 -0.40932E-01  0.10626E-01  0.00000E+00 -0.42439E-01  0.97394E-02  0.00000E+00 -0.43818E-01  0.88507E-02  0.00000E+00 -0.45163E-01  0.79481E-02  0.00000E+00 -0.46362E-01  0.70267E-02  0.00000E+00 -0.47488E-01
          0.60746E-02  0.00000E+00 -0.48473E-01  0.51056E-02  0.00000E+00 -0.49292E-01  0.41410E-02  0.00000E+00 -0.49983E-01  0.32140E-02  0.00000E+00 -0.50534E-01  0.23150E-02  0.00000E+00 -0.50877E-01  0.15877E-02  0.00000E+00 -0.51150E-01
          0.26048E-01  0.00000E+00 -0.10057E-02  0.31288E-01  0.00000E+00 -0.12870E-02  0.31200E-01  0.00000E+00 -0.55675E-02  0.29888E-01  0.00000E+00 -0.79494E-02  0.28855E-01  0.00000E+00 -0.10045E-01  0.27869E-01  0.00000E+00 -0.13609E-01
          0.26762E-01  0.00000E+00 -0.15444E-01  0.25703E-01  0.00000E+00 -0.18692E-01  0.24495E-01  0.00000E+00 -0.21029E-01  0.23330E-01  0.00000E+00 -0.23847E-01  0.22110E-01  0.00000E+00 -0.26260E-01  0.20872E-01  0.00000E+00 -0.28757E-01
          0.19658E-01  0.00000E+00 -0.30954E-01  0.18439E-01  0.00000E+00 -0.33094E-01  0.17249E-01  0.00000E+00 -0.35082E-01  0.16092E-01  0.00000E+00 -0.36952E-01  0.14957E-01  0.00000E+00 -0.38723E-01  0.13856E-01  0.00000E+00 -0.40390E-01
          0.12781E-01  0.00000E+00 -0.41932E-01  0.11723E-01  0.00000E+00 -0.43417E-01  0.10692E-01  0.00000E+00 -0.44778E-01  0.96685E-02  0.00000E+00 -0.46129E-01  0.86444E-02  0.00000E+00 -0.47342E-01  0.76070E-02  0.00000E+00 -0.48500E-01
          0.65486E-02  0.00000E+00 -0.49525E-01  0.54773E-02  0.00000E+00 -0.50390E-01  0.44164E-02  0.00000E+00 -0.51103E-01  0.34200E-02  0.00000E+00 -0.51687E-01  0.24748E-02  0.00000E+00 -0.52066E-01  0.17171E-02  0.00000E+00 -0.52325E-01
          0.27507E-01  0.00000E+00 -0.20472E-02  0.33073E-01  0.00000E+00 -0.26529E-02  0.32834E-01  0.00000E+00 -0.67250E-02  0.31475E-01  0.00000E+00 -0.92301E-02  0.30355E-01  0.00000E+00 -0.11249E-01  0.29360E-01  0.00000E+00 -0.14787E-01
          0.28214E-01  0.00000E+00 -0.16629E-01  0.27064E-01  0.00000E+00 -0.19881E-01  0.25801E-01  0.00000E+00 -0.22277E-01  0.24567E-01  0.00000E+00 -0.25061E-01  0.23279E-01  0.00000E+00 -0.27542E-01  0.21979E-01  0.00000E+00 -0.30012E-01
          0.20699E-01  0.00000E+00 -0.32207E-01  0.19409E-01  0.00000E+00 -0.34338E-01  0.18151E-01  0.00000E+00 -0.36284E-01  0.16918E-01  0.00000E+00 -0.38133E-01  0.15704E-01  0.00000E+00 -0.39876E-01  0.14518E-01  0.00000E+00 -0.41511E-01
          0.13350E-01  0.00000E+00 -0.43035E-01  0.12197E-01  0.00000E+00 -0.44499E-01  0.11062E-01  0.00000E+00 -0.45844E-01  0.99373E-02  0.00000E+00 -0.47188E-01  0.88214E-02  0.00000E+00 -0.48403E-01  0.77058E-02  0.00000E+00 -0.49577E-01
          0.65966E-02  0.00000E+00 -0.50624E-01  0.54984E-02  0.00000E+00 -0.51532E-01  0.44265E-02  0.00000E+00 -0.52259E-01  0.34442E-02  0.00000E+00 -0.52862E-01  0.25358E-02  0.00000E+00 -0.53264E-01  0.18137E-02  0.00000E+00 -0.53497E-01
          0.27007E-01  0.00000E+00 -0.30386E-02  0.32659E-01  0.00000E+00 -0.39520E-02  0.32531E-01  0.00000E+00 -0.77263E-02  0.31416E-01  0.00000E+00 -0.10411E-01  0.30450E-01  0.00000E+00 -0.12417E-01  0.29620E-01  0.00000E+00 -0.15889E-01
          0.28587E-01  0.00000E+00 -0.17827E-01  0.27510E-01  0.00000E+00 -0.21062E-01  0.26355E-01  0.00000E+00 -0.23509E-01  0.25190E-01  0.00000E+00 -0.26284E-01  0.23968E-01  0.00000E+00 -0.28827E-01  0.22731E-01  0.00000E+00 -0.31275E-01
          0.21497E-01  0.00000E+00 -0.33482E-01  0.20240E-01  0.00000E+00 -0.35609E-01  0.19002E-01  0.00000E+00 -0.37528E-01  0.17767E-01  0.00000E+00 -0.39370E-01  0.16533E-01  0.00000E+00 -0.41097E-01  0.15306E-01  0.00000E+00 -0.42719E-01
          0.14076E-01  0.00000E+00 -0.44237E-01  0.12847E-01  0.00000E+00 -0.45691E-01  0.11619E-01  0.00000E+00 -0.47028E-01  0.10393E-01  0.00000E+00 -0.48364E-01  0.91742E-02  0.00000E+00 -0.49578E-01  0.79566E-02  0.00000E+00 -0.50753E-01
          0.67606E-02  0.00000E+00 -0.51794E-01  0.55999E-02  0.00000E+00 -0.52723E-01  0.44903E-02  0.00000E+00 -0.53445E-01  0.35005E-02  0.00000E+00 -0.54043E-01  0.26171E-02  0.00000E+00 -0.54455E-01  0.19257E-02  0.00000E+00 -0.54685E-01
          0.24853E-01  0.00000E+00 -0.36763E-02  0.30142E-01  0.00000E+00 -0.49099E-02  0.30084E-01  0.00000E+00 -0.84599E-02  0.29269E-01  0.00000E+00 -0.11377E-01  0.28570E-01  0.00000E+00 -0.13405E-01  0.28005E-01  0.00000E+00 -0.16792E-01
          0.27189E-01  0.00000E+00 -0.18889E-01  0.26301E-01  0.00000E+00 -0.22086E-01  0.25351E-01  0.00000E+00 -0.24592E-01  0.24351E-01  0.00000E+00 -0.27391E-01  0.23295E-01  0.00000E+00 -0.29984E-01  0.22220E-01  0.00000E+00 -0.32429E-01
          0.21124E-01  0.00000E+00 -0.34663E-01  0.19999E-01  0.00000E+00 -0.36796E-01  0.18877E-01  0.00000E+00 -0.38708E-01  0.17734E-01  0.00000E+00 -0.40565E-01  0.16576E-01  0.00000E+00 -0.42292E-01  0.15402E-01  0.00000E+00 -0.43926E-01
          0.14201E-01  0.00000E+00 -0.45457E-01  0.12982E-01  0.00000E+00 -0.46918E-01  0.11744E-01  0.00000E+00 -0.48264E-01  0.10495E-01  0.00000E+00 -0.49599E-01  0.92470E-02  0.00000E+00 -0.50814E-01  0.79971E-02  0.00000E+00 -0.51991E-01
          0.67731E-02  0.00000E+00 -0.53014E-01  0.55969E-02  0.00000E+00 -0.53947E-01  0.44893E-02  0.00000E+00 -0.54651E-01  0.35183E-02  0.00000E+00 -0.55230E-01  0.26766E-02  0.00000E+00 -0.55635E-01  0.20319E-02  0.00000E+00 -0.55872E-01
          0.21850E-01  0.00000E+00 -0.39367E-02  0.26474E-01  0.00000E+00 -0.54658E-02  0.26457E-01  0.00000E+00 -0.88810E-02  0.25997E-01  0.00000E+00 -0.12024E-01  0.25644E-01  0.00000E+00 -0.14109E-01  0.25370E-01  0.00000E+00 -0.17434E-01