<?xml version="1.0"?>
<VTKFile type="UnstructuredGrid" version="0.1" byte_order="LittleEndian" compressor="vtkZLibDataCompressor">
<UnstructuredGrid>
  <Piece NumberOfPoints="1800"        NumberOfCells="1"      >
    <Points>
      <DataArray type="Float32" NumberOfComponents="3" format="ascii" >
        0.43523E-01  0.00000E+00  0.24931E-02  0.29033E-01  0.00000E+00  0.38773E-02  0.13985E-01  0.00000E+00  0.40721E-02  0.21224E-01  0.00000E+00  0.98861E-02  0.67244E-02  0.00000E+00  0.99129E-02  0.95461E-02  0.00000E+00  0.16563E-01
        0.80593E-02  0.00000E+00  0.22075E-01  0.11288E-01  0.00000E+00  0.27524E-01  0.79968E-02  0.00000E+00  0.33275E-01  0.92897E-02  0.00000E+00  0.39690E-01  0.79816E-02  0.00000E+00  0.45874E-01  0.10369E-01  0.00000E+00  0.51647E-01
        0.91107E-02  0.00000E+00  0.57442E-01  0.11466E-01  0.00000E+00  0.62948E-01  0.10938E-01  0.00000E+00  0.68072E-01  0.12155E-01  0.00000E+00  0.73161E-01  0.12094E-01  0.00000E+00  0.77899E-01  0.12279E-01  0.00000E+00  0.82599E-01
        0.12110E-01  0.00000E+00  0.87257E-01  0.11924E-01  0.00000E+00  0.91966E-01  0.11582E-01  0.00000E+00  0.96663E-01  0.11257E-01  0.00000E+00  0.10144E+00  0.10954E-01  0.00000E+00  0.10634E+00  0.10582E-01  0.00000E+00  0.11125E+00
        0.99343E-02  0.00000E+00  0.11604E+00  0.93005E-02  0.00000E+00  0.12105E+00  0.94509E-02  0.00000E+00  0.12671E+00  0.93002E-02  0.00000E+00  0.13245E+00  0.70876E-02  0.00000E+00  0.13702E+00  0.73256E-02  0.00000E+00  0.14069E+00
        0.58150E-01  0.00000E+00  0.34678E-02  0.36069E-01  0.00000E+00  0.10445E-01  0.50929E-01  0.00000E+00  0.10674E-01  0.43383E-01  0.00000E+00  0.16404E-01  0.26487E-01  0.00000E+00  0.16244E-01  0.36526E-01  0.00000E+00  0.22465E-01
        0.22357E-01  0.00000E+00  0.23210E-01  0.33526E-01  0.00000E+00  0.29648E-01  0.22196E-01  0.00000E+00  0.32235E-01  0.32795E-01  0.00000E+00  0.37791E-01  0.21564E-01  0.00000E+00  0.41354E-01  0.32056E-01  0.00000E+00  0.46325E-01
        0.22084E-01  0.00000E+00  0.50768E-01  0.33014E-01  0.00000E+00  0.55082E-01  0.23512E-01  0.00000E+00  0.60389E-01  0.34034E-01  0.00000E+00  0.64484E-01  0.26334E-01  0.00000E+00  0.69841E-01  0.33077E-01  0.00000E+00  0.74475E-01
        0.29922E-01  0.00000E+00  0.80057E-01  0.31346E-01  0.00000E+00  0.85651E-01  0.30526E-01  0.00000E+00  0.91047E-01  0.30161E-01  0.00000E+00  0.96604E-01  0.29455E-01  0.00000E+00  0.10209E+00  0.29022E-01  0.00000E+00  0.10789E+00
        0.28013E-01  0.00000E+00  0.11364E+00  0.28314E-01  0.00000E+00  0.11865E+00  0.26085E-01  0.00000E+00  0.12456E+00  0.26921E-01  0.00000E+00  0.13168E+00  0.24869E-01  0.00000E+00  0.13543E+00  0.25217E-01  0.00000E+00  0.13959E+00
        0.75660E-01  0.00000E+00  0.33269E-02  0.65983E-01  0.00000E+00  0.93548E-02  0.83347E-01  0.00000E+00  0.10171E-01  0.73065E-01  0.00000E+00  0.15487E-01  0.57854E-01  0.00000E+00  0.17645E-01  0.66299E-01  0.00000E+00  0.22630E-01
        0.49583E-01  0.00000E+00  0.24642E-01  0.59438E-01  0.00000E+00  0.29181E-01  0.45329E-01  0.00000E+00  0.32339E-01  0.56362E-01  0.00000E+00  0.37023E-01  0.44241E-01  0.00000E+00  0.40894E-01  0.55310E-01  0.00000E+00  0.45511E-01
        0.43650E-01  0.00000E+00  0.49647E-01  0.54873E-01  0.00000E+00  0.54227E-01  0.44099E-01  0.00000E+00  0.58828E-01  0.54819E-01  0.00000E+00  0.63596E-01  0.45602E-01  0.00000E+00  0.68405E-01  0.53372E-01  0.00000E+00  0.73267E-01
        0.48213E-01  0.00000E+00  0.78440E-01  0.50597E-01  0.00000E+00  0.84223E-01  0.48926E-01  0.00000E+00  0.89615E-01  0.48842E-01  0.00000E+00  0.95288E-01  0.47556E-01  0.00000E+00  0.10084E+00  0.47320E-01  0.00000E+00  0.10671E+00
        0.46113E-01  0.00000E+00  0.11247E+00  0.45602E-01  0.00000E+00  0.11770E+00  0.44620E-01  0.00000E+00  0.12382E+00  0.44179E-01  0.00000E+00  0.13077E+00  0.42818E-01  0.00000E+00  0.13461E+00  0.42901E-01  0.00000E+00  0.13900E+00
        0.11060E+00  0.00000E+00  0.33528E-02  0.92553E-01  0.00000E+00  0.56731E-02  0.10214E+00  0.00000E+00  0.98030E-02  0.97842E-01  0.00000E+00  0.17343E-01  0.85170E-01  0.00000E+00  0.18759E-01  0.92425E-01  0.00000E+00  0.24893E-01
        0.77054E-01  0.00000E+00  0.25389E-01  0.85672E-01  0.00000E+00  0.31684E-01  0.70790E-01  0.00000E+00  0.32909E-01  0.80592E-01  0.00000E+00  0.38706E-01  0.67493E-01  0.00000E+00  0.41030E-01  0.78373E-01  0.00000E+00  0.46757E-01
        0.66331E-01  0.00000E+00  0.49666E-01  0.77217E-01  0.00000E+00  0.55311E-01  0.65540E-01  0.00000E+00  0.58719E-01  0.76156E-01  0.00000E+00  0.64272E-01  0.65961E-01  0.00000E+00  0.68110E-01  0.73731E-01  0.00000E+00  0.73475E-01
        0.67512E-01  0.00000E+00  0.78106E-01  0.70118E-01  0.00000E+00  0.84082E-01  0.67317E-01  0.00000E+00  0.89260E-01  0.67726E-01  0.00000E+00  0.94965E-01  0.65934E-01  0.00000E+00  0.10043E+00  0.65541E-01  0.00000E+00  0.10629E+00
        0.64514E-01  0.00000E+00  0.11202E+00  0.63480E-01  0.00000E+00  0.11709E+00  0.62902E-01  0.00000E+00  0.12321E+00  0.61934E-01  0.00000E+00  0.13014E+00  0.62178E-01  0.00000E+00  0.13392E+00  0.61654E-01  0.00000E+00  0.13819E+00
        0.13816E+00  0.00000E+00  0.33770E-02  0.12433E+00  0.00000E+00  0.63025E-02  0.11462E+00  0.00000E+00  0.12317E-01  0.12531E+00  0.00000E+00  0.16536E-01  0.11071E+00  0.00000E+00  0.20364E-01  0.12113E+00  0.00000E+00  0.24438E-01
        0.10374E+00  0.00000E+00  0.26312E-01  0.11317E+00  0.00000E+00  0.31368E-01  0.97953E-01  0.00000E+00  0.34318E-01  0.10717E+00  0.00000E+00  0.39424E-01  0.92287E-01  0.00000E+00  0.41663E-01  0.10205E+00  0.00000E+00  0.47126E-01
        0.89526E-01  0.00000E+00  0.49962E-01  0.99715E-01  0.00000E+00  0.55852E-01  0.87900E-01  0.00000E+00  0.58770E-01  0.97448E-01  0.00000E+00  0.64868E-01  0.87075E-01  0.00000E+00  0.68187E-01  0.93845E-01  0.00000E+00  0.74200E-01
        0.87125E-01  0.00000E+00  0.78382E-01  0.89198E-01  0.00000E+00  0.84576E-01  0.86156E-01  0.00000E+00  0.89720E-01  0.86252E-01  0.00000E+00  0.95360E-01  0.84590E-01  0.00000E+00  0.10084E+00  0.83873E-01  0.00000E+00  0.10663E+00
        0.82861E-01  0.00000E+00  0.11227E+00  0.82087E-01  0.00000E+00  0.11734E+00  0.81142E-01  0.00000E+00  0.12336E+00  0.80663E-01  0.00000E+00  0.13020E+00  0.79932E-01  0.00000E+00  0.13383E+00  0.79969E-01  0.00000E+00  0.13816E+00
        0.15812E+00  0.00000E+00  0.32303E-02  0.14844E+00  0.00000E+00  0.84181E-02  0.13475E+00  0.00000E+00  0.12211E-01  0.15917E+00  0.00000E+00  0.13776E-01  0.14367E+00  0.00000E+00  0.17189E-01  0.15295E+00  0.00000E+00  0.20742E-01
        0.13476E+00  0.00000E+00  0.22791E-01  0.13723E+00  0.00000E+00  0.30856E-01  0.12561E+00  0.00000E+00  0.31983E-01  0.13126E+00  0.00000E+00  0.38955E-01  0.11801E+00  0.00000E+00  0.40387E-01  0.12309E+00  0.00000E+00  0.47829E-01
        0.11236E+00  0.00000E+00  0.50098E-01  0.12057E+00  0.00000E+00  0.57712E-01  0.10985E+00  0.00000E+00  0.59651E-01  0.11789E+00  0.00000E+00  0.66669E-01  0.10805E+00  0.00000E+00  0.69195E-01  0.11318E+00  0.00000E+00  0.75943E-01
        0.10602E+00  0.00000E+00  0.79727E-01  0.10824E+00  0.00000E+00  0.86087E-01  0.10434E+00  0.00000E+00  0.91000E-01  0.10511E+00  0.00000E+00  0.96688E-01  0.10314E+00  0.00000E+00  0.10205E+00  0.10227E+00  0.00000E+00  0.10783E+00
        0.10166E+00  0.00000E+00  0.11339E+00  0.10048E+00  0.00000E+00  0.11828E+00  0.99726E-01  0.00000E+00  0.12439E+00  0.99335E-01  0.00000E+00  0.13119E+00  0.99194E-01  0.00000E+00  0.13455E+00  0.98927E-01  0.00000E+00  0.13883E+00
        0.17991E+00  0.00000E+00  0.30761E-02  0.19134E+00  0.00000E+00  0.73278E-02  0.16924E+00  0.00000E+00  0.80589E-02  0.18601E+00  0.00000E+00  0.14177E-01  0.17332E+00  0.00000E+00  0.15573E-01  0.18060E+00  0.00000E+00  0.21112E-01
        0.16701E+00  0.00000E+00  0.22648E-01  0.16018E+00  0.00000E+00  0.27845E-01  0.14775E+00  0.00000E+00  0.28438E-01  0.14727E+00  0.00000E+00  0.36772E-01  0.14432E+00  0.00000E+00  0.44476E-01  0.13471E+00  0.00000E+00  0.47114E-01
        0.14429E+00  0.00000E+00  0.54356E-01  0.13164E+00  0.00000E+00  0.55777E-01  0.14073E+00  0.00000E+00  0.62908E-01  0.13150E+00  0.00000E+00  0.64895E-01  0.13089E+00  0.00000E+00  0.71790E-01  0.13018E+00  0.00000E+00  0.77689E-01
        0.12447E+00  0.00000E+00  0.81961E-01  0.12757E+00  0.00000E+00  0.88415E-01  0.12278E+00  0.00000E+00  0.92944E-01  0.12425E+00  0.00000E+00  0.98708E-01  0.12207E+00  0.00000E+00  0.10396E+00  0.12097E+00  0.00000E+00  0.10966E+00
        0.12065E+00  0.00000E+00  0.11517E+00  0.11980E+00  0.00000E+00  0.11996E+00  0.11875E+00  0.00000E+00  0.12604E+00  0.11883E+00  0.00000E+00  0.13286E+00  0.11825E+00  0.00000E+00  0.13592E+00  0.11815E+00  0.00000E+00  0.14015E+00
        0.20318E+00  0.00000E+00  0.33154E-02  0.21432E+00  0.00000E+00  0.82849E-02  0.20323E+00  0.00000E+00  0.12610E-01  0.22442E+00  0.00000E+00  0.13254E-01  0.21217E+00  0.00000E+00  0.18238E-01  0.19722E+00  0.00000E+00  0.19056E-01
        0.19190E+00  0.00000E+00  0.25739E-01  0.17841E+00  0.00000E+00  0.29311E-01  0.17122E+00  0.00000E+00  0.34378E-01  0.15994E+00  0.00000E+00  0.36423E-01  0.16640E+00  0.00000E+00  0.43869E-01  0.15504E+00  0.00000E+00  0.45540E-01
        0.16494E+00  0.00000E+00  0.52966E-01  0.15449E+00  0.00000E+00  0.55330E-01  0.16163E+00  0.00000E+00  0.62814E-01  0.15302E+00  0.00000E+00  0.65263E-01  0.14890E+00  0.00000E+00  0.71360E-01  0.14997E+00  0.00000E+00  0.77683E-01
        0.14414E+00  0.00000E+00  0.81480E-01  0.14696E+00  0.00000E+00  0.87820E-01  0.14226E+00  0.00000E+00  0.92657E-01  0.14357E+00  0.00000E+00  0.98272E-01  0.14184E+00  0.00000E+00  0.10370E+00  0.14045E+00  0.00000E+00  0.10931E+00
        0.14052E+00  0.00000E+00  0.11477E+00  0.13957E+00  0.00000E+00  0.11958E+00  0.13843E+00  0.00000E+00  0.12564E+00  0.13878E+00  0.00000E+00  0.13241E+00  0.13829E+00  0.00000E+00  0.13541E+00  0.13802E+00  0.00000E+00  0.13967E+00
[...]
<PointData>
      <DataArray type="Float32" Name="Velocity vectors"  NumberOfComponents="3"  format="ascii" >
          0.84694E-01  0.00000E+00  0.43355E-03  0.72051E-01  0.00000E+00 -0.44520E-02  0.70588E-01  0.00000E+00 -0.68264E-02  0.47147E-01  0.00000E+00 -0.45190E-02  0.23648E-02  0.00000E+00 -0.49942E-01  0.23350E-01  0.00000E+00 -0.47333E-01
         -0.56087E-02  0.00000E+00 -0.51591E-01  0.41672E-01  0.00000E+00 -0.67355E-01 -0.34499E-02  0.00000E+00 -0.79771E-01  0.12574E-01  0.00000E+00 -0.78129E-01 -0.91267E-02  0.00000E+00 -0.80107E-01  0.13138E-01  0.00000E+00 -0.86629E-01
         -0.23704E-01  0.00000E+00 -0.82487E-01  0.13787E-01  0.00000E+00 -0.82679E-01 -0.11895E-01  0.00000E+00 -0.81663E-01  0.17681E-01  0.00000E+00 -0.79485E-01  0.12758E-01  0.00000E+00 -0.79800E-01  0.19725E-01  0.00000E+00 -0.80421E-01
          0.20369E-01  0.00000E+00 -0.83721E-01  0.21095E-01  0.00000E+00 -0.88141E-01  0.19961E-01  0.00000E+00 -0.92580E-01  0.19897E-01  0.00000E+00 -0.95273E-01  0.20172E-01  0.00000E+00 -0.98659E-01  0.18426E-01  0.00000E+00 -0.10439E+00
          0.14467E-01  0.00000E+00 -0.11124E+00  0.13686E-01  0.00000E+00 -0.11387E+00  0.16742E-01  0.00000E+00 -0.11594E+00  0.89533E-02  0.00000E+00 -0.12350E+00  0.45903E-02  0.00000E+00 -0.13331E+00  0.50414E-02  0.00000E+00 -0.13767E+00
          0.10820E+00  0.00000E+00 -0.32352E-02  0.79675E-01  0.00000E+00 -0.91296E-02  0.92205E-01  0.00000E+00 -0.11907E-01  0.86158E-01  0.00000E+00 -0.12146E-01  0.65920E-01  0.00000E+00 -0.17784E-01  0.56102E-01  0.00000E+00 -0.30069E-01
          0.16461E-01  0.00000E+00 -0.36901E-01  0.36923E-01  0.00000E+00 -0.38965E-01  0.23286E-01  0.00000E+00 -0.42396E-01  0.35148E-01  0.00000E+00 -0.49755E-01  0.12073E-01  0.00000E+00 -0.57851E-01  0.22293E-01  0.00000E+00 -0.57074E-01
          0.73025E-02  0.00000E+00 -0.68027E-01  0.20486E-01  0.00000E+00 -0.73509E-01 -0.39559E-02  0.00000E+00 -0.78408E-01  0.36404E-01  0.00000E+00 -0.87891E-01 -0.27021E-01  0.00000E+00 -0.94177E-01  0.57921E-01  0.00000E+00 -0.11964E+00
         -0.32439E-02  0.00000E+00 -0.11942E+00  0.49248E-01  0.00000E+00 -0.12006E+00  0.36776E-01  0.00000E+00 -0.12914E+00  0.40726E-01  0.00000E+00 -0.13086E+00  0.35510E-01  0.00000E+00 -0.13241E+00  0.37767E-01  0.00000E+00 -0.13494E+00
          0.30204E-01  0.00000E+00 -0.13994E+00  0.40387E-01  0.00000E+00 -0.14223E+00  0.24859E-01  0.00000E+00 -0.14342E+00  0.31300E-01  0.00000E+00 -0.14642E+00  0.26291E-01  0.00000E+00 -0.15584E+00  0.27430E-01  0.00000E+00 -0.15701E+00
          0.11928E+00  0.00000E+00 -0.14157E-02  0.11277E+00  0.00000E+00 -0.41696E-02  0.14762E+00  0.00000E+00 -0.19815E-01  0.13743E+00  0.00000E+00 -0.21393E-01  0.10670E+00  0.00000E+00 -0.23105E-01  0.11225E+00  0.00000E+00 -0.28388E-01
          0.82329E-01  0.00000E+00 -0.30242E-01  0.82579E-01  0.00000E+00 -0.41501E-01  0.44789E-01  0.00000E+00 -0.47082E-01  0.57572E-01  0.00000E+00 -0.54699E-01  0.41466E-01  0.00000E+00 -0.54887E-01  0.53680E-01  0.00000E+00 -0.65035E-01
          0.39356E-01  0.00000E+00 -0.66063E-01  0.54629E-01  0.00000E+00 -0.77314E-01  0.36849E-01  0.00000E+00 -0.81688E-01  0.71125E-01  0.00000E+00 -0.90414E-01  0.16562E-01  0.00000E+00 -0.97687E-01  0.97339E-01  0.00000E+00 -0.11160E+00
          0.11871E-01  0.00000E+00 -0.12970E+00  0.86494E-01  0.00000E+00 -0.13218E+00  0.49060E-01  0.00000E+00 -0.13938E+00  0.64015E-01  0.00000E+00 -0.14182E+00  0.46918E-01  0.00000E+00 -0.14590E+00  0.55065E-01  0.00000E+00 -0.14713E+00
          0.45225E-01  0.00000E+00 -0.15304E+00  0.46565E-01  0.00000E+00 -0.15480E+00  0.42004E-01  0.00000E+00 -0.15432E+00  0.42034E-01  0.00000E+00 -0.15796E+00  0.37890E-01  0.00000E+00 -0.16393E+00  0.39503E-01  0.00000E+00 -0.16506E+00
          0.18396E+00  0.00000E+00 -0.10472E-02  0.15899E+00  0.00000E+00 -0.45335E-02  0.17433E+00  0.00000E+00 -0.12963E-01  0.14428E+00  0.00000E+00 -0.23438E-01  0.14009E+00  0.00000E+00 -0.17341E-01  0.14398E+00  0.00000E+00 -0.22334E-01
          0.12173E+00  0.00000E+00 -0.31942E-01  0.12099E+00  0.00000E+00 -0.36508E-01  0.90996E-01  0.00000E+00 -0.46675E-01  0.92793E-01  0.00000E+00 -0.53301E-01  0.68619E-01  0.00000E+00 -0.59374E-01  0.86626E-01  0.00000E+00 -0.65760E-01
          0.72310E-01  0.00000E+00 -0.72260E-01  0.91315E-01  0.00000E+00 -0.79877E-01  0.72335E-01  0.00000E+00 -0.90124E-01  0.10603E+00  0.00000E+00 -0.89806E-01  0.55324E-01  0.00000E+00 -0.10262E+00  0.13130E+00  0.00000E+00 -0.10945E+00
          0.44841E-01  0.00000E+00 -0.13517E+00  0.12474E+00  0.00000E+00 -0.13155E+00  0.60718E-01  0.00000E+00 -0.14646E+00  0.90002E-01  0.00000E+00 -0.14624E+00  0.61702E-01  0.00000E+00 -0.15322E+00  0.68836E-01  0.00000E+00 -0.15429E+00
          0.62280E-01  0.00000E+00 -0.15934E+00  0.56354E-01  0.00000E+00 -0.16285E+00  0.55785E-01  0.00000E+00 -0.16213E+00  0.52594E-01  0.00000E+00 -0.16543E+00  0.54715E-01  0.00000E+00 -0.17165E+00  0.53115E-01  0.00000E+00 -0.17330E+00
          0.22774E+00  0.00000E+00 -0.83702E-03  0.20495E+00  0.00000E+00 -0.88779E-02  0.19010E+00  0.00000E+00 -0.11591E-01  0.19460E+00  0.00000E+00 -0.18340E-01  0.15833E+00  0.00000E+00 -0.25499E-01  0.17073E+00  0.00000E+00 -0.30364E-01
          0.15113E+00  0.00000E+00 -0.32585E-01  0.16533E+00  0.00000E+00 -0.43511E-01  0.14073E+00  0.00000E+00 -0.38257E-01  0.15411E+00  0.00000E+00 -0.52465E-01  0.11461E+00  0.00000E+00 -0.57564E-01  0.13285E+00  0.00000E+00 -0.67072E-01
          0.10985E+00  0.00000E+00 -0.73966E-01  0.13708E+00  0.00000E+00 -0.85218E-01  0.11227E+00  0.00000E+00 -0.98391E-01  0.14869E+00  0.00000E+00 -0.97707E-01  0.94813E-01  0.00000E+00 -0.11494E+00  0.16976E+00  0.00000E+00 -0.11894E+00
          0.79213E-01  0.00000E+00 -0.14831E+00  0.14839E+00  0.00000E+00 -0.13645E+00  0.82295E-01  0.00000E+00 -0.15474E+00  0.10557E+00  0.00000E+00 -0.15321E+00  0.81665E-01  0.00000E+00 -0.15924E+00  0.83121E-01  0.00000E+00 -0.16114E+00
          0.76626E-01  0.00000E+00 -0.16645E+00  0.73670E-01  0.00000E+00 -0.16923E+00  0.68839E-01  0.00000E+00 -0.16929E+00  0.68676E-01  0.00000E+00 -0.17263E+00  0.66571E-01  0.00000E+00 -0.17885E+00  0.67570E-01  0.00000E+00 -0.18027E+00
          0.24204E+00  0.00000E+00 -0.12413E-02  0.22986E+00  0.00000E+00 -0.82522E-02  0.20676E+00  0.00000E+00 -0.99401E-02  0.26050E+00  0.00000E+00 -0.17220E-01  0.21473E+00  0.00000E+00 -0.16021E-01  0.23531E+00  0.00000E+00 -0.39283E-01
          0.19116E+00  0.00000E+00 -0.22702E-01  0.21193E+00  0.00000E+00 -0.29649E-01  0.18714E+00  0.00000E+00 -0.43974E-01  0.19502E+00  0.00000E+00 -0.56263E-01  0.17224E+00  0.00000E+00 -0.59275E-01  0.18010E+00  0.00000E+00 -0.69257E-01
          0.15933E+00  0.00000E+00 -0.81110E-01  0.17551E+00  0.00000E+00 -0.80668E-01  0.15784E+00  0.00000E+00 -0.10478E+00  0.19509E+00  0.00000E+00 -0.93364E-01  0.13916E+00  0.00000E+00 -0.12603E+00  0.20331E+00  0.00000E+00 -0.12109E+00
          0.10459E+00  0.00000E+00 -0.15538E+00  0.16699E+00  0.00000E+00 -0.13900E+00  0.94957E-01  0.00000E+00 -0.16408E+00  0.13067E+00  0.00000E+00 -0.15975E+00  0.10020E+00  0.00000E+00 -0.16700E+00  0.98406E-01  0.00000E+00 -0.16935E+00
          0.97174E-01  0.00000E+00 -0.17426E+00  0.87224E-01  0.00000E+00 -0.17731E+00  0.83697E-01  0.00000E+00 -0.17722E+00  0.82216E-01  0.00000E+00 -0.18096E+00  0.82140E-01  0.00000E+00 -0.18643E+00  0.81370E-01  0.00000E+00 -0.18710E+00
          0.28952E+00  0.00000E+00 -0.35684E-03  0.32079E+00  0.00000E+00 -0.97647E-02  0.26480E+00  0.00000E+00 -0.15704E-01  0.28318E+00  0.00000E+00 -0.26603E-01  0.28186E+00  0.00000E+00 -0.22192E-01  0.28083E+00  0.00000E+00 -0.26161E-01
          0.26034E+00  0.00000E+00 -0.31384E-01  0.23430E+00  0.00000E+00 -0.50756E-01  0.21207E+00  0.00000E+00 -0.53634E-01  0.22971E+00  0.00000E+00 -0.54781E-01  0.21438E+00  0.00000E+00 -0.55176E-01  0.20455E+00  0.00000E+00 -0.68961E-01
          0.22172E+00  0.00000E+00 -0.75488E-01  0.18996E+00  0.00000E+00 -0.93478E-01  0.22551E+00  0.00000E+00 -0.82224E-01  0.18460E+00  0.00000E+00 -0.11717E+00  0.19551E+00  0.00000E+00 -0.11345E+00  0.20606E+00  0.00000E+00 -0.94335E-01
          0.10868E+00  0.00000E+00 -0.13745E+00  0.19130E+00  0.00000E+00 -0.11842E+00  0.10284E+00  0.00000E+00 -0.14986E+00  0.15198E+00  0.00000E+00 -0.14592E+00  0.11408E+00  0.00000E+00 -0.15435E+00  0.10710E+00  0.00000E+00 -0.15658E+00
          0.11016E+00  0.00000E+00 -0.16168E+00  0.10304E+00  0.00000E+00 -0.16309E+00  0.95664E-01  0.00000E+00 -0.16354E+00  0.99045E-01  0.00000E+00 -0.16654E+00  0.97615E-01  0.00000E+00 -0.17320E+00  0.98076E-01  0.00000E+00 -0.17407E+00
          0.32382E+00  0.00000E+00 -0.10704E-03  0.33201E+00  0.00000E+00 -0.77187E-02  0.31977E+00  0.00000E+00 -0.68831E-03  0.34017E+00  0.00000E+00 -0.85634E-02  0.32783E+00  0.00000E+00 -0.19983E-01  0.29508E+00  0.00000E+00 -0.20963E-01
          0.28407E+00  0.00000E+00 -0.34455E-01  0.26025E+00  0.00000E+00 -0.28296E-01  0.23142E+00  0.00000E+00 -0.55052E-01  0.22437E+00  0.00000E+00 -0.51916E-01  0.25896E+00  0.00000E+00 -0.61253E-01  0.23489E+00  0.00000E+00 -0.71209E-01
          0.25532E+00  0.00000E+00 -0.71906E-01  0.23343E+00  0.00000E+00 -0.89902E-01  0.26857E+00  0.00000E+00 -0.83459E-01  0.23526E+00  0.00000E+00 -0.11013E+00  0.18701E+00  0.00000E+00 -0.12067E+00  0.23381E+00  0.00000E+00 -0.97871E-01
          0.13526E+00  0.00000E+00 -0.13896E+00  0.21015E+00  0.00000E+00 -0.12728E+00  0.12273E+00  0.00000E+00 -0.15355E+00  0.16758E+00  0.00000E+00 -0.14490E+00  0.13958E+00  0.00000E+00 -0.15264E+00  0.12301E+00  0.00000E+00 -0.15515E+00
          0.13170E+00  0.00000E+00 -0.16070E+00  0.12199E+00  0.00000E+00 -0.16169E+00  0.11307E+00  0.00000E+00 -0.16257E+00  0.11981E+00  0.00000E+00 -0.16574E+00  0.11840E+00  0.00000E+00 -0.17238E+00  0.11808E+00  0.00000E+00 -0.17361E+00
          0.34092E+00  0.00000E+00  0.40813E-03  0.35363E+00  0.00000E+00 -0.11086E-01  0.35469E+00  0.00000E+00 -0.36963E-02  0.39574E+00  0.00000E+00 -0.30369E-01  0.34773E+00  0.00000E+00 -0.20402E-01  0.34159E+00  0.00000E+00 -0.11848E-01
          0.31617E+00  0.00000E+00 -0.32767E-01  0.30438E+00  0.00000E+00 -0.28405E-01  0.28226E+00  0.00000E+00 -0.42880E-01  0.26383E+00  0.00000E+00 -0.47738E-01  0.29165E+00  0.00000E+00 -0.52050E-01  0.26620E+00  0.00000E+00 -0.63538E-01
          0.28781E+00  0.00000E+00 -0.67799E-01  0.25530E+00  0.00000E+00 -0.91415E-01  0.27703E+00  0.00000E+00 -0.89049E-01  0.27857E+00  0.00000E+00 -0.74015E-01  0.21562E+00  0.00000E+00 -0.11505E+00  0.25588E+00  0.00000E+00 -0.10203E+00
          0.16310E+00  0.00000E+00 -0.14916E+00  0.23190E+00  0.00000E+00 -0.13321E+00  0.14886E+00  0.00000E+00 -0.16508E+00  0.19504E+00  0.00000E+00 -0.15663E+00  0.15967E+00  0.00000E+00 -0.16431E+00  0.14406E+00  0.00000E+00 -0.16755E+00
          0.15238E+00  0.00000E+00 -0.17394E+00  0.14231E+00  0.00000E+00 -0.17267E+00  0.13380E+00  0.00000E+00 -0.17454E+00  0.14066E+00  0.00000E+00 -0.17893E+00  0.13846E+00  0.00000E+00 -0.18399E+00  0.13856E+00  0.00000E+00 -0.18450E+00
          0.37362E+00  0.00000E+00  0.19516E-03  0.37381E+00  0.00000E+00 -0.59473E-02  0.44606E+00  0.00000E+00 -0.23034E-01  0.42014E+00  0.00000E+00 -0.26680E-01  0.41752E+00  0.00000E+00 -0.35165E-01  0.39743E+00  0.00000E+00 -0.34984E-01
          0.36913E+00  0.00000E+00 -0.44787E-01  0.35777E+00  0.00000E+00 -0.23774E-01  0.32889E+00  0.00000E+00 -0.39840E-01  0.31933E+00  0.00000E+00 -0.38410E-01  0.30046E+00  0.00000E+00 -0.63664E-01  0.30223E+00  0.00000E+00 -0.59196E-01
          0.29805E+00  0.00000E+00 -0.61209E-01  0.31296E+00  0.00000E+00 -0.66160E-01  0.26541E+00  0.00000E+00 -0.83704E-01  0.31946E+00  0.00000E+00 -0.79924E-01  0.25891E+00  0.00000E+00 -0.11349E+00  0.30657E+00  0.00000E+00 -0.99540E-01
          0.21099E+00  0.00000E+00 -0.13422E+00  0.26300E+00  0.00000E+00 -0.11055E+00  0.17772E+00  0.00000E+00 -0.15545E+00  0.21367E+00  0.00000E+00 -0.14215E+00  0.17906E+00  0.00000E+00 -0.14770E+00  0.15999E+00  0.00000E+00 -0.15388E+00
          0.17090E+00  0.00000E+00 -0.15867E+00  0.16165E+00  0.00000E+00 -0.15787E+00  0.15042E+00  0.00000E+00 -0.16064E+00  0.15970E+00  0.00000E+00 -0.16403E+00  0.15676E+00  0.00000E+00 -0.16965E+00  0.15672E+00  0.00000E+00 -0.17159E+00
          0.39600E+00  0.00000E+00 -0.19493E-02  0.45153E+00  0.00000E+00 -0.99597E-02  0.46343E+00  0.00000E+00 -0.71007E-02  0.44436E+00  0.00000E+00 -0.11811E-01  0.43361E+00  0.00000E+00 -0.21515E-01  0.41575E+00  0.00000E+00 -0.18026E-01
          0.41108E+00  0.00000E+00 -0.35060E-01  0.40741E+00  0.00000E+00 -0.43012E-01  0.38730E+00  0.00000E+00 -0.60190E-01  0.37688E+00  0.00000E+00 -0.51717E-01  0.35425E+00  0.00000E+00 -0.56761E-01  0.33334E+00  0.00000E+00 -0.65095E-01
          0.31725E+00  0.00000E+00 -0.62448E-01  0.33986E+00  0.00000E+00 -0.66551E-01  0.30587E+00  0.00000E+00 -0.90804E-01  0.37096E+00  0.00000E+00 -0.84953E-01  0.29364E+00  0.00000E+00 -0.11410E+00  0.32773E+00  0.00000E+00 -0.90881E-01
          0.23156E+00  0.00000E+00 -0.13322E+00  0.28787E+00  0.00000E+00 -0.10768E+00  0.19898E+00  0.00000E+00 -0.14812E+00  0.23809E+00  0.00000E+00 -0.13770E+00  0.19978E+00  0.00000E+00 -0.14404E+00  0.17997E+00  0.00000E+00 -0.14963E+00
          0.19191E+00  0.00000E+00 -0.15682E+00  0.18174E+00  0.00000E+00 -0.15500E+00  0.17040E+00  0.00000E+00 -0.15741E+00  0.17981E+00  0.00000E+00 -0.16180E+00  0.17654E+00  0.00000E+00 -0.16760E+00  0.17657E+00  0.00000E+00 -0.16900E+00
          0.47587E+00  0.00000E+00 -0.23680E-02  0.50260E+00  0.00000E+00 -0.90916E-02  0.49480E+00  0.00000E+00 -0.31558E-02  0.45938E+00  0.00000E+00 -0.22440E-01  0.45472E+00  0.00000E+00 -0.25358E-01  0.44621E+00  0.00000E+00 -0.17987E-01
          0.44436E+00  0.00000E+00 -0.25889E-01  0.43604E+00  0.00000E+00 -0.30851E-01  0.42604E+00  0.00000E+00 -0.39379E-01  0.41582E+00  0.00000E+00 -0.46840E-01  0.39925E+00  0.00000E+00 -0.62839E-01  0.37832E+00  0.00000E+00 -0.81393E-01
          0.36307E+00  0.00000E+00 -0.72036E-01  0.36942E+00  0.00000E+00 -0.69439E-01  0.34531E+00  0.00000E+00 -0.99162E-01  0.39172E+00  0.00000E+00 -0.90624E-01  0.31641E+00  0.00000E+00 -0.12245E+00  0.34965E+00  0.00000E+00 -0.91645E-01
          0.25141E+00  0.00000E+00 -0.13342E+00  0.30480E+00  0.00000E+00 -0.11187E+00  0.21716E+00  0.00000E+00 -0.14693E+00  0.25764E+00  0.00000E+00 -0.13219E+00  0.22466E+00  0.00000E+00 -0.14233E+00  0.20259E+00  0.00000E+00 -0.14531E+00
          0.21318E+00  0.00000E+00 -0.15170E+00  0.20356E+00  0.00000E+00 -0.15167E+00  0.19020E+00  0.00000E+00 -0.15410E+00  0.19969E+00  0.00000E+00 -0.15793E+00  0.19614E+00  0.00000E+00 -0.16420E+00  0.19603E+00  0.00000E+00 -0.16583E+00
          0.51887E+00  0.00000E+00 -0.15745E-02  0.53786E+00  0.00000E+00 -0.71965E-02  0.52363E+00  0.00000E+00 -0.33835E-02  0.49339E+00  0.00000E+00 -0.20371E-01  0.48759E+00  0.00000E+00 -0.22303E-01  0.47605E+00  0.00000E+00 -0.17648E-01
          0.47424E+00  0.00000E+00 -0.31401E-01  0.46939E+00  0.00000E+00 -0.34231E-01  0.46010E+00  0.00000E+00 -0.35956E-01  0.44414E+00  0.00000E+00 -0.40612E-01  0.43296E+00  0.00000E+00 -0.41628E-01  0.41687E+00  0.00000E+00 -0.56020E-01
          0.40091E+00  0.00000E+00 -0.69896E-01  0.38469E+00  0.00000E+00 -0.63736E-01  0.38155E+00  0.00000E+00 -0.10431E+00  0.35552E+00  0.00000E+00 -0.96891E-01  0.39031E+00  0.00000E+00 -0.88954E-01  0.33729E+00  0.00000E+00 -0.91366E-01
          0.25831E+00  0.00000E+00 -0.12193E+00  0.31923E+00  0.00000E+00 -0.10271E+00  0.23125E+00  0.00000E+00 -0.13904E+00  0.28077E+00  0.00000E+00 -0.12722E+00  0.24702E+00  0.00000E+00 -0.13648E+00  0.22146E+00  0.00000E+00 -0.14081E+00
          0.23484E+00  0.00000E+00 -0.14809E+00  0.22448E+00  0.00000E+00 -0.14668E+00  0.20961E+00  0.00000E+00 -0.14973E+00  0.21939E+00  0.00000E+00 -0.15390E+00  0.21542E+00  0.00000E+00 -0.15999E+00  0.21523E+00  0.00000E+00 -0.16150E+00
          0.55508E+00  0.00000E+00 -0.10950E-02  0.57000E+00  0.00000E+00 -0.53623E-02  0.55327E+00  0.00000E+00 -0.55419E-02  0.52483E+00  0.00000E+00 -0.19816E-01  0.52070E+00  0.00000E+00 -0.21286E-01  0.50790E+00  0.00000E+00 -0.17763E-01
          0.50661E+00  0.00000E+00 -0.27941E-01  0.50076E+00  0.00000E+00 -0.33016E-01  0.48970E+00  0.00000E+00 -0.37366E-01  0.47856E+00  0.00000E+00 -0.43486E-01  0.47108E+00  0.00000E+00 -0.44521E-01  0.45463E+00  0.00000E+00 -0.51735E-01
          0.44397E+00  0.00000E+00 -0.57710E-01  0.40959E+00  0.00000E+00 -0.60812E-01  0.40089E+00  0.00000E+00 -0.69276E-01  0.36095E+00  0.00000E+00 -0.89242E-01  0.40233E+00  0.00000E+00 -0.81911E-01  0.34501E+00  0.00000E+00 -0.81345E-01
          0.27138E+00  0.00000E+00 -0.10645E+00  0.33750E+00  0.00000E+00 -0.90708E-01  0.25089E+00  0.00000E+00 -0.12694E+00  0.30658E+00  0.00000E+00 -0.12135E+00  0.26964E+00  0.00000E+00 -0.12691E+00  0.24057E+00  0.00000E+00 -0.13242E+00
          0.25599E+00  0.00000E+00 -0.14204E+00  0.24535E+00  0.00000E+00 -0.13855E+00  0.22815E+00  0.00000E+00 -0.14249E+00  0.23963E+00  0.00000E+00 -0.14737E+00  0.23510E+00  0.00000E+00 -0.15299E+00  0.23486E+00  0.00000E+00 -0.15462E+00
          0.58852E+00  0.00000E+00 -0.59235E-03  0.60251E+00  0.00000E+00 -0.46573E-02  0.58942E+00  0.00000E+00 -0.81782E-02  0.55991E+00  0.00000E+00 -0.19781E-01  0.55871E+00  0.00000E+00 -0.22999E-01  0.54168E+00  0.00000E+00 -0.20742E-01
          0.53998E+00  0.00000E+00 -0.28450E-01  0.53319E+00  0.00000E+00 -0.34803E-01  0.52291E+00  0.00000E+00 -0.37113E-01  0.51035E+00  0.00000E+00 -0.43128E-01  0.50002E+00  0.00000E+00 -0.47873E-01  0.48564E+00  0.00000E+00 -0.52407E-01
          0.47296E+00  0.00000E+00 -0.50929E-01  0.45189E+00  0.00000E+00 -0.68250E-01  0.43180E+00  0.00000E+00 -0.55328E-01  0.40967E+00  0.00000E+00 -0.80964E-01  0.37866E+00  0.00000E+00 -0.85466E-01  0.36864E+00  0.00000E+00 -0.70905E-01
          0.28753E+00  0.00000E+00 -0.94917E-01  0.36302E+00  0.00000E+00 -0.86831E-01  0.27422E+00  0.00000E+00 -0.11692E+00  0.33461E+00  0.00000E+00 -0.11518E+00  0.30033E+00  0.00000E+00 -0.11841E+00  0.26513E+00  0.00000E+00 -0.12539E+00
          0.28035E+00  0.00000E+00 -0.13609E+00  0.26840E+00  0.00000E+00 -0.13121E+00  0.24887E+00  0.00000E+00 -0.13644E+00  0.26141E+00  0.00000E+00 -0.14164E+00  0.25588E+00  0.00000E+00 -0.14729E+00  0.25557E+00  0.00000E+00 -0.14948E+00
          0.62308E+00  0.00000E+00 -0.17971E-03  0.63887E+00  0.00000E+00 -0.57574E-02  0.62738E+00  0.00000E+00 -0.87905E-02  0.59956E+00  0.00000E+00 -0.19525E-01  0.60281E+00  0.00000E+00 -0.25249E-01  0.57955E+00  0.00000E+00 -0.23541E-01
          0.57583E+00  0.00000E+00 -0.29461E-01  0.56807E+00  0.00000E+00 -0.38880E-01  0.55832E+00  0.00000E+00 -0.40363E-01  0.54448E+00  0.00000E+00 -0.44141E-01  0.53390E+00  0.00000E+00 -0.47604E-01  0.51966E+00  0.00000E+00 -0.52798E-01
          0.50691E+00  0.00000E+00 -0.52335E-01  0.48466E+00  0.00000E+00 -0.66340E-01  0.46182E+00  0.00000E+00 -0.66465E-01  0.44419E+00  0.00000E+00 -0.61029E-01  0.40165E+00  0.00000E+00 -0.85343E-01  0.38574E+00  0.00000E+00 -0.74316E-01
          0.31152E+00  0.00000E+00 -0.98326E-01  0.38743E+00  0.00000E+00 -0.95595E-01  0.30243E+00  0.00000E+00 -0.12217E+00  0.36904E+00  0.00000E+00 -0.12417E+00  0.33233E+00  0.00000E+00 -0.12144E+00  0.29357E+00  0.00000E+00 -0.13204E+00
          0.30664E+00  0.00000E+00 -0.14340E+00  0.29264E+00  0.00000E+00 -0.13630E+00  0.27210E+00  0.00000E+00 -0.14307E+00  0.28431E+00  0.00000E+00 -0.14869E+00  0.27778E+00  0.00000E+00 -0.15395E+00  0.27736E+00  0.00000E+00 -0.15612E+00
          0.66242E+00  0.00000E+00 -0.12581E-03  0.66472E+00  0.00000E+00 -0.69970E-03  0.68133E+00  0.00000E+00 -0.66395E-02  0.63574E+00  0.00000E+00 -0.10103E-01  0.65825E+00  0.00000E+00 -0.32113E-01  0.62113E+00  0.00000E+00 -0.20909E-01