<?xml version="1.0"?>
<VTKFile type="UnstructuredGrid" version="0.1" byte_order="LittleEndian" compressor="vtkZLibDataCompressor">
<UnstructuredGrid>
  <Piece NumberOfPoints="1800"        NumberOfCells="1"      >
    <Points>
      <DataArray type="Float32" NumberOfComponents="3" format="ascii" >
        0.30209E-01  0.00000E+00  0.24934E-02  0.18148E-01  0.00000E+00  0.38997E-02  0.76794E-02  0.00000E+00  0.70821E-02  0.99272E-02  0.00000E+00  0.14076E-01  0.79181E-02  0.00000E+00  0.19668E-01  0.78614E-02  0.00000E+00  0.26360E-01
        0.76785E-02  0.00000E+00  0.33235E-01  0.85165E-02  0.00000E+00  0.39726E-01  0.85941E-02  0.00000E+00  0.46056E-01  0.90825E-02  0.00000E+00  0.52134E-01  0.92286E-02  0.00000E+00  0.57964E-01  0.95585E-02  0.00000E+00  0.63478E-01
        0.95535E-02  0.00000E+00  0.68885E-01  0.95268E-02  0.00000E+00  0.74296E-01  0.93498E-02  0.00000E+00  0.79740E-01  0.91935E-02  0.00000E+00  0.85214E-01  0.90131E-02  0.00000E+00  0.90747E-01  0.88257E-02  0.00000E+00  0.96338E-01
        0.86322E-02  0.00000E+00  0.10200E+00  0.84328E-02  0.00000E+00  0.10773E+00  0.82362E-02  0.00000E+00  0.11354E+00  0.80431E-02  0.00000E+00  0.11944E+00  0.78423E-02  0.00000E+00  0.12542E+00  0.76651E-02  0.00000E+00  0.13152E+00
        0.75323E-02  0.00000E+00  0.13774E+00  0.72639E-02  0.00000E+00  0.14394E+00  0.71222E-02  0.00000E+00  0.15033E+00  0.76215E-02  0.00000E+00  0.15724E+00  0.64722E-02  0.00000E+00  0.16354E+00  0.65044E-02  0.00000E+00  0.16839E+00
        0.42510E-01  0.00000E+00  0.38374E-02  0.24654E-01  0.00000E+00  0.11258E-01  0.37757E-01  0.00000E+00  0.12412E-01  0.30614E-01  0.00000E+00  0.18784E-01  0.19881E-01  0.00000E+00  0.19917E-01  0.29854E-01  0.00000E+00  0.27446E-01
        0.19622E-01  0.00000E+00  0.30266E-01  0.29075E-01  0.00000E+00  0.36334E-01  0.20093E-01  0.00000E+00  0.41028E-01  0.29368E-01  0.00000E+00  0.46380E-01  0.21588E-01  0.00000E+00  0.51990E-01  0.28394E-01  0.00000E+00  0.57496E-01
        0.24392E-01  0.00000E+00  0.63570E-01  0.26546E-01  0.00000E+00  0.69661E-01  0.25502E-01  0.00000E+00  0.75773E-01  0.25627E-01  0.00000E+00  0.81964E-01  0.25240E-01  0.00000E+00  0.88116E-01  0.24987E-01  0.00000E+00  0.94314E-01
        0.24667E-01  0.00000E+00  0.10052E+00  0.24360E-01  0.00000E+00  0.10672E+00  0.24037E-01  0.00000E+00  0.11294E+00  0.23712E-01  0.00000E+00  0.11923E+00  0.23386E-01  0.00000E+00  0.12545E+00  0.23048E-01  0.00000E+00  0.13169E+00
        0.22699E-01  0.00000E+00  0.13824E+00  0.22517E-01  0.00000E+00  0.14446E+00  0.21809E-01  0.00000E+00  0.15042E+00  0.22205E-01  0.00000E+00  0.15812E+00  0.21144E-01  0.00000E+00  0.16387E+00  0.21372E-01  0.00000E+00  0.16865E+00
        0.58937E-01  0.00000E+00  0.34837E-02  0.49771E-01  0.00000E+00  0.10239E-01  0.62843E-01  0.00000E+00  0.12640E-01  0.53570E-01  0.00000E+00  0.18344E-01  0.42457E-01  0.00000E+00  0.21262E-01  0.51983E-01  0.00000E+00  0.26978E-01
        0.40419E-01  0.00000E+00  0.30421E-01  0.49632E-01  0.00000E+00  0.36202E-01  0.39085E-01  0.00000E+00  0.40325E-01  0.48197E-01  0.00000E+00  0.46204E-01  0.38742E-01  0.00000E+00  0.51107E-01  0.46091E-01  0.00000E+00  0.57024E-01
        0.40197E-01  0.00000E+00  0.62649E-01  0.42843E-01  0.00000E+00  0.68983E-01  0.41526E-01  0.00000E+00  0.75140E-01  0.41583E-01  0.00000E+00  0.81456E-01  0.41143E-01  0.00000E+00  0.87780E-01  0.40886E-01  0.00000E+00  0.94104E-01
        0.40531E-01  0.00000E+00  0.10046E+00  0.40201E-01  0.00000E+00  0.10680E+00  0.39841E-01  0.00000E+00  0.11315E+00  0.39482E-01  0.00000E+00  0.11958E+00  0.39085E-01  0.00000E+00  0.12592E+00  0.38723E-01  0.00000E+00  0.13225E+00
        0.38280E-01  0.00000E+00  0.13890E+00  0.37914E-01  0.00000E+00  0.14517E+00  0.37504E-01  0.00000E+00  0.15119E+00  0.37252E-01  0.00000E+00  0.15887E+00  0.36528E-01  0.00000E+00  0.16435E+00  0.36507E-01  0.00000E+00  0.16922E+00
        0.84999E-01  0.00000E+00  0.33028E-02  0.71313E-01  0.00000E+00  0.68070E-02  0.79128E-01  0.00000E+00  0.12333E-01  0.76851E-01  0.00000E+00  0.20736E-01  0.65382E-01  0.00000E+00  0.21234E-01  0.72688E-01  0.00000E+00  0.28561E-01
        0.61446E-01  0.00000E+00  0.30686E-01  0.69916E-01  0.00000E+00  0.37795E-01  0.58958E-01  0.00000E+00  0.40643E-01  0.66796E-01  0.00000E+00  0.47462E-01  0.56835E-01  0.00000E+00  0.51444E-01  0.63140E-01  0.00000E+00  0.58082E-01
        0.56817E-01  0.00000E+00  0.63309E-01  0.59204E-01  0.00000E+00  0.69710E-01  0.57422E-01  0.00000E+00  0.75796E-01  0.57569E-01  0.00000E+00  0.82111E-01  0.57013E-01  0.00000E+00  0.88411E-01  0.56704E-01  0.00000E+00  0.94730E-01
        0.56304E-01  0.00000E+00  0.10108E+00  0.55946E-01  0.00000E+00  0.10742E+00  0.55542E-01  0.00000E+00  0.11378E+00  0.55173E-01  0.00000E+00  0.12020E+00  0.54740E-01  0.00000E+00  0.12653E+00  0.54356E-01  0.00000E+00  0.13285E+00
        0.53933E-01  0.00000E+00  0.13947E+00  0.53515E-01  0.00000E+00  0.14566E+00  0.53226E-01  0.00000E+00  0.15167E+00  0.52770E-01  0.00000E+00  0.15933E+00  0.52827E-01  0.00000E+00  0.16463E+00  0.52525E-01  0.00000E+00  0.16938E+00
        0.10738E+00  0.00000E+00  0.35201E-02  0.96390E-01  0.00000E+00  0.76310E-02  0.89858E-01  0.00000E+00  0.14599E-01  0.99147E-01  0.00000E+00  0.20278E-01  0.88013E-01  0.00000E+00  0.23766E-01  0.96637E-01  0.00000E+00  0.29606E-01
        0.83079E-01  0.00000E+00  0.31633E-01  0.89921E-01  0.00000E+00  0.38456E-01  0.79100E-01  0.00000E+00  0.41399E-01  0.84729E-01  0.00000E+00  0.48700E-01  0.75081E-01  0.00000E+00  0.52449E-01  0.79474E-01  0.00000E+00  0.59535E-01
        0.73683E-01  0.00000E+00  0.64624E-01  0.75347E-01  0.00000E+00  0.71118E-01  0.73624E-01  0.00000E+00  0.77144E-01  0.73579E-01  0.00000E+00  0.83365E-01  0.72994E-01  0.00000E+00  0.89580E-01  0.72651E-01  0.00000E+00  0.95824E-01
        0.72222E-01  0.00000E+00  0.10208E+00  0.71843E-01  0.00000E+00  0.10832E+00  0.71422E-01  0.00000E+00  0.11458E+00  0.71038E-01  0.00000E+00  0.12091E+00  0.70612E-01  0.00000E+00  0.12713E+00  0.70212E-01  0.00000E+00  0.13336E+00
        0.69811E-01  0.00000E+00  0.13990E+00  0.69442E-01  0.00000E+00  0.14596E+00  0.69051E-01  0.00000E+00  0.15190E+00  0.68780E-01  0.00000E+00  0.15948E+00  0.68376E-01  0.00000E+00  0.16464E+00  0.68340E-01  0.00000E+00  0.16943E+00
        0.12426E+00  0.00000E+00  0.36133E-02  0.11703E+00  0.00000E+00  0.99243E-02  0.10648E+00  0.00000E+00  0.13536E-01  0.12264E+00  0.00000E+00  0.18464E-01  0.11224E+00  0.00000E+00  0.21236E-01  0.11964E+00  0.00000E+00  0.27984E-01
        0.10761E+00  0.00000E+00  0.28831E-01  0.10775E+00  0.00000E+00  0.37501E-01  0.98910E-01  0.00000E+00  0.40733E-01  0.10084E+00  0.00000E+00  0.49084E-01  0.93160E-01  0.00000E+00  0.53184E-01  0.94489E-01  0.00000E+00  0.60594E-01
        0.90876E-01  0.00000E+00  0.66323E-01  0.91277E-01  0.00000E+00  0.72587E-01  0.90101E-01  0.00000E+00  0.78603E-01  0.89839E-01  0.00000E+00  0.84767E-01  0.89271E-01  0.00000E+00  0.90858E-01  0.88894E-01  0.00000E+00  0.96991E-01
        0.88432E-01  0.00000E+00  0.10315E+00  0.88045E-01  0.00000E+00  0.10928E+00  0.87584E-01  0.00000E+00  0.11544E+00  0.87199E-01  0.00000E+00  0.12167E+00  0.86752E-01  0.00000E+00  0.12776E+00  0.86320E-01  0.00000E+00  0.13393E+00
        0.85946E-01  0.00000E+00  0.14038E+00  0.85523E-01  0.00000E+00  0.14630E+00  0.85166E-01  0.00000E+00  0.15221E+00  0.84916E-01  0.00000E+00  0.15979E+00  0.84777E-01  0.00000E+00  0.16474E+00  0.84598E-01  0.00000E+00  0.16941E+00
        0.13882E+00  0.00000E+00  0.35570E-02  0.14642E+00  0.00000E+00  0.98391E-02  0.13150E+00  0.00000E+00  0.11362E-01  0.14471E+00  0.00000E+00  0.18318E-01  0.13359E+00  0.00000E+00  0.19825E-01  0.13924E+00  0.00000E+00  0.27210E-01
        0.12980E+00  0.00000E+00  0.30209E-01  0.12512E+00  0.00000E+00  0.37436E-01  0.11695E+00  0.00000E+00  0.40706E-01  0.11426E+00  0.00000E+00  0.48284E-01  0.11184E+00  0.00000E+00  0.54835E-01  0.10809E+00  0.00000E+00  0.60759E-01
        0.10909E+00  0.00000E+00  0.67283E-01  0.10726E+00  0.00000E+00  0.73133E-01  0.10699E+00  0.00000E+00  0.79233E-01  0.10643E+00  0.00000E+00  0.85324E-01  0.10592E+00  0.00000E+00  0.91372E-01  0.10550E+00  0.00000E+00  0.97451E-01
        0.10501E+00  0.00000E+00  0.10355E+00  0.10460E+00  0.00000E+00  0.10962E+00  0.10411E+00  0.00000E+00  0.11572E+00  0.10370E+00  0.00000E+00  0.12189E+00  0.10323E+00  0.00000E+00  0.12791E+00  0.10277E+00  0.00000E+00  0.13402E+00
        0.10237E+00  0.00000E+00  0.14042E+00  0.10197E+00  0.00000E+00  0.14625E+00  0.10155E+00  0.00000E+00  0.15211E+00  0.10133E+00  0.00000E+00  0.15965E+00  0.10094E+00  0.00000E+00  0.16452E+00  0.10082E+00  0.00000E+00  0.16919E+00
        0.15563E+00  0.00000E+00  0.35114E-02  0.16481E+00  0.00000E+00  0.10056E-01  0.15672E+00  0.00000E+00  0.14967E-01  0.17303E+00  0.00000E+00  0.17257E-01  0.16307E+00  0.00000E+00  0.23116E-01  0.15292E+00  0.00000E+00  0.24364E-01
        0.14964E+00  0.00000E+00  0.32931E-01  0.14112E+00  0.00000E+00  0.37026E-01  0.13668E+00  0.00000E+00  0.44163E-01  0.12878E+00  0.00000E+00  0.47272E-01  0.12889E+00  0.00000E+00  0.54642E-01  0.12457E+00  0.00000E+00  0.59959E-01
        0.12568E+00  0.00000E+00  0.66393E-01  0.12393E+00  0.00000E+00  0.72451E-01  0.12373E+00  0.00000E+00  0.78589E-01  0.12319E+00  0.00000E+00  0.84698E-01  0.12266E+00  0.00000E+00  0.90779E-01  0.12221E+00  0.00000E+00  0.96893E-01
        0.12171E+00  0.00000E+00  0.10300E+00  0.12127E+00  0.00000E+00  0.10909E+00  0.12075E+00  0.00000E+00  0.11521E+00  0.12032E+00  0.00000E+00  0.12138E+00  0.11984E+00  0.00000E+00  0.12741E+00  0.11934E+00  0.00000E+00  0.13353E+00
        0.11895E+00  0.00000E+00  0.13992E+00  0.11851E+00  0.00000E+00  0.14573E+00  0.11804E+00  0.00000E+00  0.15161E+00  0.11782E+00  0.00000E+00  0.15916E+00  0.11746E+00  0.00000E+00  0.16396E+00  0.11726E+00  0.00000E+00  0.16860E+00
[...]
<PointData>
      <DataArray type="Float32" Name="Velocity vectors"  NumberOfComponents="3"  format="ascii" >
          0.94017E-01  0.00000E+00 -0.44485E-03  0.83924E-01  0.00000E+00 -0.98997E-03  0.29677E-01  0.00000E+00 -0.37431E-01  0.42072E-01  0.00000E+00 -0.50299E-01 -0.29610E-02  0.00000E+00 -0.64259E-01  0.68155E-02  0.00000E+00 -0.62971E-01
          0.28618E-02  0.00000E+00 -0.70359E-01  0.31588E-02  0.00000E+00 -0.70771E-01 -0.46608E-02  0.00000E+00 -0.68082E-01 -0.12897E-02  0.00000E+00 -0.62385E-01  0.52401E-03  0.00000E+00 -0.57531E-01  0.10097E-01  0.00000E+00 -0.55409E-01
          0.14507E-01  0.00000E+00 -0.58012E-01  0.18398E-01  0.00000E+00 -0.63790E-01  0.18709E-01  0.00000E+00 -0.71169E-01  0.19846E-01  0.00000E+00 -0.78426E-01  0.19884E-01  0.00000E+00 -0.86307E-01  0.19898E-01  0.00000E+00 -0.94779E-01
          0.19466E-01  0.00000E+00 -0.10351E+00  0.18787E-01  0.00000E+00 -0.11259E+00  0.17952E-01  0.00000E+00 -0.12193E+00  0.16660E-01  0.00000E+00 -0.13168E+00  0.15157E-01  0.00000E+00 -0.14132E+00  0.14031E-01  0.00000E+00 -0.15040E+00
          0.12047E-01  0.00000E+00 -0.16013E+00  0.91423E-02  0.00000E+00 -0.16992E+00  0.98513E-02  0.00000E+00 -0.17657E+00  0.98848E-02  0.00000E+00 -0.18350E+00  0.30790E-02  0.00000E+00 -0.19382E+00  0.52496E-02  0.00000E+00 -0.20321E+00
          0.97895E-01  0.00000E+00  0.12321E-03  0.53875E-01  0.00000E+00 -0.18322E-02  0.78612E-01  0.00000E+00 -0.85124E-02  0.55988E-01  0.00000E+00 -0.24606E-01  0.22925E-01  0.00000E+00 -0.24843E-01  0.35777E-01  0.00000E+00 -0.32732E-01
          0.15956E-01  0.00000E+00 -0.53262E-01  0.19849E-01  0.00000E+00 -0.42845E-01  0.18507E-02  0.00000E+00 -0.63708E-01  0.20506E-01  0.00000E+00 -0.61398E-01 -0.25768E-01  0.00000E+00 -0.74597E-01  0.55970E-01  0.00000E+00 -0.93588E-01
         -0.26361E-01  0.00000E+00 -0.96155E-01  0.54972E-01  0.00000E+00 -0.10555E+00  0.26006E-01  0.00000E+00 -0.11385E+00  0.42716E-01  0.00000E+00 -0.11728E+00  0.37363E-01  0.00000E+00 -0.12298E+00  0.38893E-01  0.00000E+00 -0.12794E+00
          0.37894E-01  0.00000E+00 -0.13294E+00  0.37445E-01  0.00000E+00 -0.13814E+00  0.36513E-01  0.00000E+00 -0.14286E+00  0.35311E-01  0.00000E+00 -0.14792E+00  0.33680E-01  0.00000E+00 -0.15466E+00  0.32129E-01  0.00000E+00 -0.15904E+00
          0.29827E-01  0.00000E+00 -0.16394E+00  0.29198E-01  0.00000E+00 -0.17428E+00  0.23761E-01  0.00000E+00 -0.17810E+00  0.25759E-01  0.00000E+00 -0.18078E+00  0.18581E-01  0.00000E+00 -0.19458E+00  0.19880E-01  0.00000E+00 -0.20243E+00
          0.98073E-01  0.00000E+00  0.31054E-03  0.95583E-01  0.00000E+00 -0.23092E-02  0.11247E+00  0.00000E+00 -0.10053E-01  0.10309E+00  0.00000E+00 -0.12153E-01  0.71774E-01  0.00000E+00 -0.26197E-01  0.67616E-01  0.00000E+00 -0.25198E-01
          0.41788E-01  0.00000E+00 -0.41333E-01  0.51052E-01  0.00000E+00 -0.42897E-01  0.36518E-01  0.00000E+00 -0.56607E-01  0.54289E-01  0.00000E+00 -0.61132E-01  0.20655E-01  0.00000E+00 -0.73770E-01  0.94850E-01  0.00000E+00 -0.81480E-01
         -0.50888E-02  0.00000E+00 -0.10265E+00  0.84058E-01  0.00000E+00 -0.11009E+00  0.41640E-01  0.00000E+00 -0.11997E+00  0.58730E-01  0.00000E+00 -0.12546E+00  0.52998E-01  0.00000E+00 -0.13098E+00  0.54844E-01  0.00000E+00 -0.13671E+00
          0.53269E-01  0.00000E+00 -0.14205E+00  0.52794E-01  0.00000E+00 -0.14765E+00  0.51676E-01  0.00000E+00 -0.15256E+00  0.50833E-01  0.00000E+00 -0.15753E+00  0.49335E-01  0.00000E+00 -0.16417E+00  0.48312E-01  0.00000E+00 -0.16805E+00
          0.46075E-01  0.00000E+00 -0.17279E+00  0.44731E-01  0.00000E+00 -0.18222E+00  0.42473E-01  0.00000E+00 -0.18386E+00  0.41101E-01  0.00000E+00 -0.18806E+00  0.36337E-01  0.00000E+00 -0.20134E+00  0.36792E-01  0.00000E+00 -0.20704E+00
          0.13723E+00  0.00000E+00  0.21831E-02  0.11516E+00  0.00000E+00 -0.84156E-02  0.12392E+00  0.00000E+00 -0.14272E-01  0.11638E+00  0.00000E+00 -0.17470E-01  0.10787E+00  0.00000E+00 -0.13186E-01  0.10450E+00  0.00000E+00 -0.19743E-01
          0.79735E-01  0.00000E+00 -0.35225E-01  0.85157E-01  0.00000E+00 -0.36832E-01  0.68801E-01  0.00000E+00 -0.51808E-01  0.96025E-01  0.00000E+00 -0.56447E-01  0.61314E-01  0.00000E+00 -0.74996E-01  0.13898E+00  0.00000E+00 -0.78410E-01
          0.30067E-01  0.00000E+00 -0.10861E+00  0.11477E+00  0.00000E+00 -0.10848E+00  0.59073E-01  0.00000E+00 -0.12312E+00  0.80704E-01  0.00000E+00 -0.12785E+00  0.70315E-01  0.00000E+00 -0.13355E+00  0.71529E-01  0.00000E+00 -0.13933E+00
          0.69277E-01  0.00000E+00 -0.14474E+00  0.68562E-01  0.00000E+00 -0.15024E+00  0.66734E-01  0.00000E+00 -0.15516E+00  0.65878E-01  0.00000E+00 -0.16025E+00  0.63763E-01  0.00000E+00 -0.16681E+00  0.62487E-01  0.00000E+00 -0.17026E+00
          0.60621E-01  0.00000E+00 -0.17507E+00  0.58567E-01  0.00000E+00 -0.18451E+00  0.57486E-01  0.00000E+00 -0.18526E+00  0.55331E-01  0.00000E+00 -0.18950E+00  0.56574E-01  0.00000E+00 -0.20186E+00  0.55570E-01  0.00000E+00 -0.20749E+00
          0.17108E+00  0.00000E+00 -0.19814E-02  0.14820E+00  0.00000E+00 -0.84683E-02  0.13000E+00  0.00000E+00 -0.14283E-01  0.14226E+00  0.00000E+00 -0.25097E-01  0.12566E+00  0.00000E+00 -0.19620E-01  0.13926E+00  0.00000E+00 -0.32067E-01
          0.11418E+00  0.00000E+00 -0.33646E-01  0.13372E+00  0.00000E+00 -0.42272E-01  0.10947E+00  0.00000E+00 -0.53126E-01  0.14669E+00  0.00000E+00 -0.62218E-01  0.10519E+00  0.00000E+00 -0.80608E-01  0.18078E+00  0.00000E+00 -0.80133E-01
          0.68126E-01  0.00000E+00 -0.11659E+00  0.13441E+00  0.00000E+00 -0.10757E+00  0.79807E-01  0.00000E+00 -0.12183E+00  0.95210E-01  0.00000E+00 -0.12577E+00  0.85527E-01  0.00000E+00 -0.13060E+00  0.86505E-01  0.00000E+00 -0.13514E+00
          0.83930E-01  0.00000E+00 -0.14031E+00  0.83151E-01  0.00000E+00 -0.14553E+00  0.81250E-01  0.00000E+00 -0.14997E+00  0.80330E-01  0.00000E+00 -0.15519E+00  0.78514E-01  0.00000E+00 -0.16193E+00  0.77190E-01  0.00000E+00 -0.16532E+00
          0.75929E-01  0.00000E+00 -0.17069E+00  0.74937E-01  0.00000E+00 -0.18075E+00  0.73478E-01  0.00000E+00 -0.18145E+00  0.73460E-01  0.00000E+00 -0.18628E+00  0.71382E-01  0.00000E+00 -0.19952E+00  0.72137E-01  0.00000E+00 -0.20497E+00
          0.19508E+00  0.00000E+00 -0.48669E-02  0.17971E+00  0.00000E+00 -0.94565E-02  0.14828E+00  0.00000E+00 -0.15755E-01  0.19983E+00  0.00000E+00 -0.32451E-01  0.18371E+00  0.00000E+00 -0.42127E-01  0.18129E+00  0.00000E+00 -0.47625E-01
          0.15277E+00  0.00000E+00 -0.61582E-01  0.16802E+00  0.00000E+00 -0.60392E-01  0.15618E+00  0.00000E+00 -0.72262E-01  0.20115E+00  0.00000E+00 -0.67027E-01  0.14040E+00  0.00000E+00 -0.10790E+00  0.18937E+00  0.00000E+00 -0.87974E-01
          0.96106E-01  0.00000E+00 -0.10764E+00  0.13468E+00  0.00000E+00 -0.99548E-01  0.10096E+00  0.00000E+00 -0.11052E+00  0.10733E+00  0.00000E+00 -0.11186E+00  0.10004E+00  0.00000E+00 -0.11800E+00  0.10097E+00  0.00000E+00 -0.12281E+00
          0.98456E-01  0.00000E+00 -0.12786E+00  0.98633E-01  0.00000E+00 -0.13365E+00  0.96689E-01  0.00000E+00 -0.13850E+00  0.96678E-01  0.00000E+00 -0.14439E+00  0.95176E-01  0.00000E+00 -0.15196E+00  0.94046E-01  0.00000E+00 -0.15555E+00
          0.93788E-01  0.00000E+00 -0.16178E+00  0.92394E-01  0.00000E+00 -0.17319E+00  0.91547E-01  0.00000E+00 -0.17328E+00  0.92057E-01  0.00000E+00 -0.17849E+00  0.92356E-01  0.00000E+00 -0.19304E+00  0.92250E-01  0.00000E+00 -0.19877E+00
          0.23027E+00  0.00000E+00 -0.43097E-02  0.24614E+00  0.00000E+00 -0.18687E-01  0.21631E+00  0.00000E+00 -0.23021E-01  0.23088E+00  0.00000E+00 -0.24283E-01  0.21550E+00  0.00000E+00 -0.28637E-01  0.25535E+00  0.00000E+00 -0.40449E-01
          0.21758E+00  0.00000E+00 -0.73196E-01  0.22357E+00  0.00000E+00 -0.69083E-01  0.18540E+00  0.00000E+00 -0.10704E+00  0.19809E+00  0.00000E+00 -0.93669E-01  0.19919E+00  0.00000E+00 -0.85941E-01  0.11469E+00  0.00000E+00 -0.98041E-01
          0.17738E+00  0.00000E+00 -0.81874E-01  0.11466E+00  0.00000E+00 -0.98891E-01  0.12716E+00  0.00000E+00 -0.10094E+00  0.12026E+00  0.00000E+00 -0.10396E+00  0.11841E+00  0.00000E+00 -0.10993E+00  0.11886E+00  0.00000E+00 -0.11484E+00
          0.11725E+00  0.00000E+00 -0.11987E+00  0.11809E+00  0.00000E+00 -0.12583E+00  0.11634E+00  0.00000E+00 -0.13071E+00  0.11693E+00  0.00000E+00 -0.13693E+00  0.11591E+00  0.00000E+00 -0.14466E+00  0.11472E+00  0.00000E+00 -0.14825E+00
          0.11479E+00  0.00000E+00 -0.15487E+00  0.11411E+00  0.00000E+00 -0.16686E+00  0.11248E+00  0.00000E+00 -0.16685E+00  0.11372E+00  0.00000E+00 -0.17215E+00  0.11205E+00  0.00000E+00 -0.18759E+00  0.11246E+00  0.00000E+00 -0.19380E+00
          0.27442E+00  0.00000E+00 -0.25218E-02  0.28818E+00  0.00000E+00 -0.95323E-02  0.25643E+00  0.00000E+00 -0.30150E-01  0.28940E+00  0.00000E+00 -0.34349E-01  0.27827E+00  0.00000E+00 -0.33794E-01  0.26242E+00  0.00000E+00 -0.49139E-01
          0.25255E+00  0.00000E+00 -0.45265E-01  0.21759E+00  0.00000E+00 -0.61070E-01  0.21917E+00  0.00000E+00 -0.49528E-01  0.17675E+00  0.00000E+00 -0.97865E-01  0.21915E+00  0.00000E+00 -0.74389E-01  0.11659E+00  0.00000E+00 -0.10384E+00
          0.18136E+00  0.00000E+00 -0.94767E-01  0.13047E+00  0.00000E+00 -0.10481E+00  0.14369E+00  0.00000E+00 -0.10513E+00  0.13816E+00  0.00000E+00 -0.10996E+00  0.13597E+00  0.00000E+00 -0.11608E+00  0.13656E+00  0.00000E+00 -0.12009E+00
          0.13571E+00  0.00000E+00 -0.12543E+00  0.13708E+00  0.00000E+00 -0.13109E+00  0.13584E+00  0.00000E+00 -0.13551E+00  0.13712E+00  0.00000E+00 -0.14146E+00  0.13683E+00  0.00000E+00 -0.14865E+00  0.13576E+00  0.00000E+00 -0.15182E+00
          0.13674E+00  0.00000E+00 -0.15818E+00  0.13621E+00  0.00000E+00 -0.16971E+00  0.13441E+00  0.00000E+00 -0.16903E+00  0.13595E+00  0.00000E+00 -0.17450E+00  0.13479E+00  0.00000E+00 -0.18976E+00  0.13457E+00  0.00000E+00 -0.19516E+00
          0.30106E+00  0.00000E+00 -0.38216E-02  0.32347E+00  0.00000E+00 -0.13575E-01  0.33087E+00  0.00000E+00 -0.12997E-01  0.34088E+00  0.00000E+00 -0.16758E-01  0.31358E+00  0.00000E+00 -0.50611E-01  0.29982E+00  0.00000E+00 -0.43524E-01
          0.28595E+00  0.00000E+00 -0.49994E-01  0.27051E+00  0.00000E+00 -0.79219E-01  0.25353E+00  0.00000E+00 -0.67606E-01  0.23441E+00  0.00000E+00 -0.10215E+00  0.24735E+00  0.00000E+00 -0.83108E-01  0.14780E+00  0.00000E+00 -0.12091E+00
          0.17125E+00  0.00000E+00 -0.98167E-01  0.15630E+00  0.00000E+00 -0.10292E+00  0.15464E+00  0.00000E+00 -0.10856E+00  0.15618E+00  0.00000E+00 -0.11238E+00  0.15379E+00  0.00000E+00 -0.11800E+00  0.15489E+00  0.00000E+00 -0.12315E+00
          0.15404E+00  0.00000E+00 -0.12889E+00  0.15548E+00  0.00000E+00 -0.13458E+00  0.15451E+00  0.00000E+00 -0.13928E+00  0.15605E+00  0.00000E+00 -0.14534E+00  0.15593E+00  0.00000E+00 -0.15233E+00  0.15533E+00  0.00000E+00 -0.15540E+00
          0.15656E+00  0.00000E+00 -0.16169E+00  0.15623E+00  0.00000E+00 -0.17265E+00  0.15463E+00  0.00000E+00 -0.17176E+00  0.15684E+00  0.00000E+00 -0.17730E+00  0.15513E+00  0.00000E+00 -0.19178E+00  0.15528E+00  0.00000E+00 -0.19697E+00
          0.33545E+00  0.00000E+00 -0.14480E-02  0.35330E+00  0.00000E+00 -0.14264E-01  0.37208E+00  0.00000E+00 -0.76901E-02  0.34464E+00  0.00000E+00 -0.27125E-01  0.38034E+00  0.00000E+00 -0.45168E-01  0.36369E+00  0.00000E+00 -0.37814E-01
          0.32517E+00  0.00000E+00 -0.59423E-01  0.30939E+00  0.00000E+00 -0.71792E-01  0.29300E+00  0.00000E+00 -0.68847E-01  0.27389E+00  0.00000E+00 -0.89261E-01  0.24205E+00  0.00000E+00 -0.97475E-01  0.21483E+00  0.00000E+00 -0.84322E-01
          0.12586E+00  0.00000E+00 -0.10916E+00  0.18687E+00  0.00000E+00 -0.10542E+00  0.16694E+00  0.00000E+00 -0.11219E+00  0.17538E+00  0.00000E+00 -0.11656E+00  0.17281E+00  0.00000E+00 -0.12132E+00  0.17405E+00  0.00000E+00 -0.12594E+00
          0.17287E+00  0.00000E+00 -0.13145E+00  0.17458E+00  0.00000E+00 -0.13680E+00  0.17347E+00  0.00000E+00 -0.14133E+00  0.17513E+00  0.00000E+00 -0.14728E+00  0.17530E+00  0.00000E+00 -0.15410E+00  0.17470E+00  0.00000E+00 -0.15714E+00
          0.17638E+00  0.00000E+00 -0.16342E+00  0.17639E+00  0.00000E+00 -0.17428E+00  0.17464E+00  0.00000E+00 -0.17342E+00  0.17758E+00  0.00000E+00 -0.17895E+00  0.17587E+00  0.00000E+00 -0.19325E+00  0.17600E+00  0.00000E+00 -0.19841E+00
          0.36739E+00  0.00000E+00 -0.59656E-04  0.38403E+00  0.00000E+00 -0.14624E-01  0.40697E+00  0.00000E+00 -0.17793E-01  0.39010E+00  0.00000E+00 -0.28107E-01  0.40692E+00  0.00000E+00 -0.34448E-01  0.39457E+00  0.00000E+00 -0.33956E-01
          0.37013E+00  0.00000E+00 -0.50574E-01  0.35957E+00  0.00000E+00 -0.53964E-01  0.32331E+00  0.00000E+00 -0.73906E-01  0.30343E+00  0.00000E+00 -0.90264E-01  0.27709E+00  0.00000E+00 -0.87169E-01  0.23161E+00  0.00000E+00 -0.88998E-01
          0.15539E+00  0.00000E+00 -0.11796E+00  0.19493E+00  0.00000E+00 -0.10860E+00  0.18446E+00  0.00000E+00 -0.11801E+00  0.18739E+00  0.00000E+00 -0.12108E+00  0.18847E+00  0.00000E+00 -0.12387E+00  0.19010E+00  0.00000E+00 -0.12891E+00
          0.18963E+00  0.00000E+00 -0.13394E+00  0.19183E+00  0.00000E+00 -0.13892E+00  0.19120E+00  0.00000E+00 -0.14358E+00  0.19345E+00  0.00000E+00 -0.14951E+00  0.19405E+00  0.00000E+00 -0.15626E+00  0.19382E+00  0.00000E+00 -0.15947E+00
          0.19602E+00  0.00000E+00 -0.16582E+00  0.19631E+00  0.00000E+00 -0.17645E+00  0.19458E+00  0.00000E+00 -0.17584E+00  0.19791E+00  0.00000E+00 -0.18131E+00  0.19597E+00  0.00000E+00 -0.19520E+00  0.19613E+00  0.00000E+00 -0.20034E+00
          0.40679E+00  0.00000E+00 -0.39749E-03  0.42656E+00  0.00000E+00 -0.13568E-01  0.44179E+00  0.00000E+00 -0.14115E-01  0.41981E+00  0.00000E+00 -0.23757E-01  0.43796E+00  0.00000E+00 -0.32112E-01  0.42595E+00  0.00000E+00 -0.33843E-01
          0.40482E+00  0.00000E+00 -0.48189E-01  0.38930E+00  0.00000E+00 -0.50416E-01  0.36507E+00  0.00000E+00 -0.62626E-01  0.34052E+00  0.00000E+00 -0.72695E-01  0.29911E+00  0.00000E+00 -0.84703E-01  0.26571E+00  0.00000E+00 -0.85202E-01
          0.19260E+00  0.00000E+00 -0.12295E+00  0.21592E+00  0.00000E+00 -0.10774E+00  0.19755E+00  0.00000E+00 -0.12218E+00  0.20023E+00  0.00000E+00 -0.12495E+00  0.20331E+00  0.00000E+00 -0.12653E+00  0.20660E+00  0.00000E+00 -0.13190E+00
          0.20712E+00  0.00000E+00 -0.13721E+00  0.21018E+00  0.00000E+00 -0.14183E+00  0.21003E+00  0.00000E+00 -0.14670E+00  0.21266E+00  0.00000E+00 -0.15272E+00  0.21351E+00  0.00000E+00 -0.15926E+00  0.21349E+00  0.00000E+00 -0.16254E+00
          0.21575E+00  0.00000E+00 -0.16885E+00  0.21606E+00  0.00000E+00 -0.17907E+00  0.21423E+00  0.00000E+00 -0.17847E+00  0.21772E+00  0.00000E+00 -0.18403E+00  0.21555E+00  0.00000E+00 -0.19729E+00  0.21571E+00  0.00000E+00 -0.20213E+00
          0.44430E+00  0.00000E+00  0.13737E-03  0.46150E+00  0.00000E+00 -0.12075E-01  0.47567E+00  0.00000E+00 -0.13102E-01  0.45435E+00  0.00000E+00 -0.22450E-01  0.47044E+00  0.00000E+00 -0.29371E-01  0.45779E+00  0.00000E+00 -0.32719E-01
          0.43945E+00  0.00000E+00 -0.46192E-01  0.42487E+00  0.00000E+00 -0.49801E-01  0.40053E+00  0.00000E+00 -0.60787E-01  0.37771E+00  0.00000E+00 -0.72674E-01  0.34572E+00  0.00000E+00 -0.70972E-01  0.30446E+00  0.00000E+00 -0.83348E-01
          0.24057E+00  0.00000E+00 -0.12422E+00  0.23866E+00  0.00000E+00 -0.10827E+00  0.21387E+00  0.00000E+00 -0.12115E+00  0.21117E+00  0.00000E+00 -0.12658E+00  0.21769E+00  0.00000E+00 -0.12790E+00  0.22190E+00  0.00000E+00 -0.13284E+00
          0.22340E+00  0.00000E+00 -0.13856E+00  0.22746E+00  0.00000E+00 -0.14291E+00  0.22749E+00  0.00000E+00 -0.14767E+00  0.23056E+00  0.00000E+00 -0.15373E+00  0.23167E+00  0.00000E+00 -0.16006E+00  0.23163E+00  0.00000E+00 -0.16325E+00
          0.23427E+00  0.00000E+00 -0.16954E+00  0.23475E+00  0.00000E+00 -0.17951E+00  0.23269E+00  0.00000E+00 -0.17891E+00  0.23671E+00  0.00000E+00 -0.18438E+00  0.23438E+00  0.00000E+00 -0.19729E+00  0.23460E+00  0.00000E+00 -0.20227E+00
          0.47899E+00  0.00000E+00  0.20530E-03  0.49616E+00  0.00000E+00 -0.12011E-01  0.50879E+00  0.00000E+00 -0.12449E-01  0.48672E+00  0.00000E+00 -0.21802E-01  0.50121E+00  0.00000E+00 -0.28233E-01  0.48869E+00  0.00000E+00 -0.31732E-01
          0.47175E+00  0.00000E+00 -0.43280E-01  0.45773E+00  0.00000E+00 -0.48047E-01  0.43671E+00  0.00000E+00 -0.58116E-01  0.41383E+00  0.00000E+00 -0.69235E-01  0.38389E+00  0.00000E+00 -0.76454E-01  0.35168E+00  0.00000E+00 -0.77891E-01
          0.30548E+00  0.00000E+00 -0.10855E+00  0.25960E+00  0.00000E+00 -0.11077E+00  0.23026E+00  0.00000E+00 -0.11795E+00  0.22693E+00  0.00000E+00 -0.12625E+00  0.23335E+00  0.00000E+00 -0.12856E+00  0.23808E+00  0.00000E+00 -0.13266E+00
          0.24051E+00  0.00000E+00 -0.13895E+00  0.24551E+00  0.00000E+00 -0.14356E+00  0.24582E+00  0.00000E+00 -0.14813E+00  0.24934E+00  0.00000E+00 -0.15447E+00  0.25072E+00  0.00000E+00 -0.16084E+00  0.25071E+00  0.00000E+00 -0.16409E+00
          0.25351E+00  0.00000E+00 -0.17055E+00  0.25405E+00  0.00000E+00 -0.18035E+00  0.25168E+00  0.00000E+00 -0.17983E+00  0.25583E+00  0.00000E+00 -0.18539E+00  0.25325E+00  0.00000E+00 -0.19801E+00  0.25338E+00  0.00000E+00 -0.20278E+00
          0.51435E+00  0.00000E+00  0.18775E-03  0.53127E+00  0.00000E+00 -0.11950E-01  0.54140E+00  0.00000E+00 -0.11694E-01  0.51719E+00  0.00000E+00 -0.20937E-01  0.53157E+00  0.00000E+00 -0.28097E-01  0.51880E+00  0.00000E+00 -0.30882E-01
          0.50261E+00  0.00000E+00 -0.41399E-01  0.48959E+00  0.00000E+00 -0.46915E-01  0.47159E+00  0.00000E+00 -0.55768E-01  0.45016E+00  0.00000E+00 -0.64854E-01  0.42318E+00  0.00000E+00 -0.74581E-01  0.38856E+00  0.00000E+00 -0.80918E-01
          0.35534E+00  0.00000E+00 -0.96833E-01  0.30774E+00  0.00000E+00 -0.10839E+00  0.25633E+00  0.00000E+00 -0.11919E+00  0.24475E+00  0.00000E+00 -0.12620E+00  0.24984E+00  0.00000E+00 -0.13303E+00  0.25492E+00  0.00000E+00 -0.13552E+00
          0.25776E+00  0.00000E+00 -0.14066E+00  0.26377E+00  0.00000E+00 -0.14590E+00  0.26421E+00  0.00000E+00 -0.15003E+00  0.26806E+00  0.00000E+00 -0.15590E+00  0.26963E+00  0.00000E+00 -0.16212E+00  0.26942E+00  0.00000E+00 -0.16515E+00
          0.27230E+00  0.00000E+00 -0.17141E+00  0.27279E+00  0.00000E+00 -0.18086E+00  0.26998E+00  0.00000E+00 -0.18017E+00  0.27438E+00  0.00000E+00 -0.18567E+00  0.27152E+00  0.00000E+00 -0.19788E+00  0.27162E+00  0.00000E+00 -0.20253E+00
          0.55018E+00  0.00000E+00  0.12256E-03  0.56571E+00  0.00000E+00 -0.11065E-01  0.57551E+00  0.00000E+00 -0.10988E-01  0.54661E+00  0.00000E+00 -0.17824E-01  0.56720E+00  0.00000E+00 -0.31212E-01  0.55072E+00  0.00000E+00 -0.30727E-01
          0.53309E+00  0.00000E+00 -0.41403E-01  0.52127E+00  0.00000E+00 -0.46909E-01  0.50499E+00  0.00000E+00 -0.54417E-01  0.48541E+00  0.00000E+00 -0.62497E-01  0.46071E+00  0.00000E+00 -0.71159E-01  0.42717E+00  0.00000E+00 -0.81003E-01
          0.39501E+00  0.00000E+00 -0.90855E-01  0.35661E+00  0.00000E+00 -0.10022E+00  0.29854E+00  0.00000E+00 -0.12139E+00  0.26866E+00  0.00000E+00 -0.12643E+00  0.26709E+00  0.00000E+00 -0.13489E+00  0.27088E+00  0.00000E+00 -0.13944E+00
          0.27376E+00  0.00000E+00 -0.14298E+00  0.28063E+00  0.00000E+00 -0.14767E+00  0.28142E+00  0.00000E+00 -0.15201E+00  0.28578E+00  0.00000E+00 -0.15728E+00  0.28761E+00  0.00000E+00 -0.16308E+00  0.28739E+00  0.00000E+00 -0.16600E+00
          0.29056E+00  0.00000E+00 -0.17209E+00  0.29115E+00  0.00000E+00 -0.18116E+00  0.28796E+00  0.00000E+00 -0.18035E+00  0.29272E+00  0.00000E+00 -0.18583E+00  0.28964E+00  0.00000E+00 -0.19778E+00  0.28967E+00  0.00000E+00 -0.20224E+00
          0.58029E+00  0.00000E+00 -0.17662E-03  0.59876E+00  0.00000E+00 -0.11759E-01  0.61244E+00  0.00000E+00 -0.11589E-01  0.58070E+00  0.00000E+00 -0.15006E-01  0.60847E+00  0.00000E+00 -0.29591E-01  0.58576E+00  0.00000E+00 -0.32925E-01