<?xml version="1.0"?>
<VTKFile type="UnstructuredGrid" version="0.1" byte_order="LittleEndian" compressor="vtkZLibDataCompressor">
<UnstructuredGrid>
  <Piece NumberOfPoints="1800"        NumberOfCells="1"      >
    <Points>
      <DataArray type="Float32" NumberOfComponents="3" format="ascii" >
        0.12987E-01  0.00000E+00  0.24797E-02  0.74510E-02  0.00000E+00  0.86645E-02  0.71056E-02  0.00000E+00  0.16089E-01  0.80491E-02  0.00000E+00  0.22166E-01  0.82301E-02  0.00000E+00  0.28253E-01  0.78104E-02  0.00000E+00  0.34776E-01
        0.75113E-02  0.00000E+00  0.41319E-01  0.74680E-02  0.00000E+00  0.47823E-01  0.73648E-02  0.00000E+00  0.54386E-01  0.72081E-02  0.00000E+00  0.61062E-01  0.70879E-02  0.00000E+00  0.67861E-01  0.69776E-02  0.00000E+00  0.74739E-01
        0.68859E-02  0.00000E+00  0.81706E-01  0.68033E-02  0.00000E+00  0.88750E-01  0.67292E-02  0.00000E+00  0.95865E-01  0.66615E-02  0.00000E+00  0.10305E+00  0.65984E-02  0.00000E+00  0.11030E+00  0.65390E-02  0.00000E+00  0.11761E+00
        0.64819E-02  0.00000E+00  0.12497E+00  0.64278E-02  0.00000E+00  0.13240E+00  0.63752E-02  0.00000E+00  0.13989E+00  0.63236E-02  0.00000E+00  0.14743E+00  0.62775E-02  0.00000E+00  0.15503E+00  0.62255E-02  0.00000E+00  0.16268E+00
        0.61825E-02  0.00000E+00  0.17039E+00  0.61596E-02  0.00000E+00  0.17816E+00  0.60362E-02  0.00000E+00  0.18590E+00  0.61985E-02  0.00000E+00  0.19387E+00  0.59524E-02  0.00000E+00  0.20185E+00  0.56560E-02  0.00000E+00  0.20873E+00
        0.28515E-01  0.00000E+00  0.36988E-02  0.19367E-01  0.00000E+00  0.10407E-01  0.26125E-01  0.00000E+00  0.15374E-01  0.25979E-01  0.00000E+00  0.22638E-01  0.19526E-01  0.00000E+00  0.27327E-01  0.25043E-01  0.00000E+00  0.34158E-01
        0.20867E-01  0.00000E+00  0.40534E-01  0.22398E-01  0.00000E+00  0.47290E-01  0.21379E-01  0.00000E+00  0.54060E-01  0.21290E-01  0.00000E+00  0.61013E-01  0.20988E-01  0.00000E+00  0.67960E-01  0.20766E-01  0.00000E+00  0.74963E-01
        0.20557E-01  0.00000E+00  0.82022E-01  0.20365E-01  0.00000E+00  0.89124E-01  0.20185E-01  0.00000E+00  0.96279E-01  0.20016E-01  0.00000E+00  0.10349E+00  0.19853E-01  0.00000E+00  0.11075E+00  0.19699E-01  0.00000E+00  0.11807E+00
        0.19550E-01  0.00000E+00  0.12543E+00  0.19407E-01  0.00000E+00  0.13286E+00  0.19269E-01  0.00000E+00  0.14034E+00  0.19132E-01  0.00000E+00  0.14786E+00  0.19003E-01  0.00000E+00  0.15545E+00  0.18880E-01  0.00000E+00  0.16307E+00
        0.18742E-01  0.00000E+00  0.17073E+00  0.18675E-01  0.00000E+00  0.17856E+00  0.18466E-01  0.00000E+00  0.18608E+00  0.18527E-01  0.00000E+00  0.19420E+00  0.18252E-01  0.00000E+00  0.20214E+00  0.18162E-01  0.00000E+00  0.20875E+00
        0.44732E-01  0.00000E+00  0.35819E-02  0.35799E-01  0.00000E+00  0.10325E-01  0.43986E-01  0.00000E+00  0.15106E-01  0.41546E-01  0.00000E+00  0.22374E-01  0.35612E-01  0.00000E+00  0.27730E-01  0.40825E-01  0.00000E+00  0.34783E-01
        0.35381E-01  0.00000E+00  0.40909E-01  0.37196E-01  0.00000E+00  0.47767E-01  0.35554E-01  0.00000E+00  0.54528E-01  0.35528E-01  0.00000E+00  0.61578E-01  0.35063E-01  0.00000E+00  0.68612E-01  0.34773E-01  0.00000E+00  0.75694E-01
        0.34477E-01  0.00000E+00  0.82831E-01  0.34195E-01  0.00000E+00  0.89994E-01  0.33923E-01  0.00000E+00  0.97202E-01  0.33661E-01  0.00000E+00  0.10445E+00  0.33405E-01  0.00000E+00  0.11175E+00  0.33158E-01  0.00000E+00  0.11909E+00
        0.32918E-01  0.00000E+00  0.12647E+00  0.32685E-01  0.00000E+00  0.13390E+00  0.32459E-01  0.00000E+00  0.14138E+00  0.32242E-01  0.00000E+00  0.14888E+00  0.32030E-01  0.00000E+00  0.15647E+00  0.31831E-01  0.00000E+00  0.16406E+00
        0.31633E-01  0.00000E+00  0.17168E+00  0.31455E-01  0.00000E+00  0.17951E+00  0.31274E-01  0.00000E+00  0.18693E+00  0.31136E-01  0.00000E+00  0.19507E+00  0.30933E-01  0.00000E+00  0.20291E+00  0.30808E-01  0.00000E+00  0.20940E+00
        0.62626E-01  0.00000E+00  0.36028E-02  0.53852E-01  0.00000E+00  0.95439E-02  0.57340E-01  0.00000E+00  0.16767E-01  0.59680E-01  0.00000E+00  0.24241E-01  0.50912E-01  0.00000E+00  0.28000E-01  0.56139E-01  0.00000E+00  0.35170E-01
        0.50825E-01  0.00000E+00  0.41092E-01  0.51532E-01  0.00000E+00  0.48186E-01  0.49996E-01  0.00000E+00  0.54979E-01  0.49646E-01  0.00000E+00  0.62021E-01  0.49136E-01  0.00000E+00  0.69107E-01  0.48761E-01  0.00000E+00  0.76227E-01
        0.48395E-01  0.00000E+00  0.83399E-01  0.48045E-01  0.00000E+00  0.90600E-01  0.47704E-01  0.00000E+00  0.97838E-01  0.47374E-01  0.00000E+00  0.10511E+00  0.47048E-01  0.00000E+00  0.11242E+00  0.46732E-01  0.00000E+00  0.11977E+00
        0.46422E-01  0.00000E+00  0.12715E+00  0.46122E-01  0.00000E+00  0.13458E+00  0.45828E-01  0.00000E+00  0.14204E+00  0.45547E-01  0.00000E+00  0.14953E+00  0.45271E-01  0.00000E+00  0.15709E+00  0.45011E-01  0.00000E+00  0.16464E+00
        0.44761E-01  0.00000E+00  0.17222E+00  0.44519E-01  0.00000E+00  0.18000E+00  0.44323E-01  0.00000E+00  0.18735E+00  0.44092E-01  0.00000E+00  0.19543E+00  0.43992E-01  0.00000E+00  0.20312E+00  0.43816E-01  0.00000E+00  0.20955E+00
        0.78266E-01  0.00000E+00  0.37555E-02  0.70685E-01  0.00000E+00  0.98806E-02  0.70329E-01  0.00000E+00  0.17540E-01  0.76358E-01  0.00000E+00  0.24018E-01  0.68497E-01  0.00000E+00  0.29242E-01  0.71828E-01  0.00000E+00  0.36663E-01
        0.65979E-01  0.00000E+00  0.41927E-01  0.65903E-01  0.00000E+00  0.48967E-01  0.64396E-01  0.00000E+00  0.55695E-01  0.63824E-01  0.00000E+00  0.62645E-01  0.63235E-01  0.00000E+00  0.69667E-01  0.62767E-01  0.00000E+00  0.76730E-01
        0.62327E-01  0.00000E+00  0.83857E-01  0.61906E-01  0.00000E+00  0.91024E-01  0.61493E-01  0.00000E+00  0.98236E-01  0.61091E-01  0.00000E+00  0.10549E+00  0.60694E-01  0.00000E+00  0.11279E+00  0.60307E-01  0.00000E+00  0.12012E+00
        0.59927E-01  0.00000E+00  0.12750E+00  0.59557E-01  0.00000E+00  0.13491E+00  0.59196E-01  0.00000E+00  0.14237E+00  0.58849E-01  0.00000E+00  0.14984E+00  0.58512E-01  0.00000E+00  0.15738E+00  0.58194E-01  0.00000E+00  0.16491E+00
        0.57886E-01  0.00000E+00  0.17247E+00  0.57607E-01  0.00000E+00  0.18022E+00  0.57346E-01  0.00000E+00  0.18752E+00  0.57115E-01  0.00000E+00  0.19558E+00  0.56938E-01  0.00000E+00  0.20323E+00  0.56809E-01  0.00000E+00  0.20961E+00
        0.91695E-01  0.00000E+00  0.43304E-02  0.87175E-01  0.00000E+00  0.11233E-01  0.84588E-01  0.00000E+00  0.18469E-01  0.93193E-01  0.00000E+00  0.23851E-01  0.85635E-01  0.00000E+00  0.29515E-01  0.86746E-01  0.00000E+00  0.36899E-01
        0.81681E-01  0.00000E+00  0.42549E-01  0.80566E-01  0.00000E+00  0.49575E-01  0.79024E-01  0.00000E+00  0.56207E-01  0.78175E-01  0.00000E+00  0.63048E-01  0.77472E-01  0.00000E+00  0.70025E-01  0.76881E-01  0.00000E+00  0.77036E-01
        0.76335E-01  0.00000E+00  0.84121E-01  0.75817E-01  0.00000E+00  0.91261E-01  0.75315E-01  0.00000E+00  0.98450E-01  0.74828E-01  0.00000E+00  0.10569E+00  0.74353E-01  0.00000E+00  0.11297E+00  0.73891E-01  0.00000E+00  0.12030E+00
        0.73442E-01  0.00000E+00  0.12766E+00  0.73007E-01  0.00000E+00  0.13506E+00  0.72587E-01  0.00000E+00  0.14250E+00  0.72185E-01  0.00000E+00  0.14996E+00  0.71798E-01  0.00000E+00  0.15748E+00  0.71435E-01  0.00000E+00  0.16498E+00
        0.71089E-01  0.00000E+00  0.17252E+00  0.70773E-01  0.00000E+00  0.18024E+00  0.70494E-01  0.00000E+00  0.18749E+00  0.70242E-01  0.00000E+00  0.19553E+00  0.70088E-01  0.00000E+00  0.20311E+00  0.69911E-01  0.00000E+00  0.20944E+00
        0.10197E+00  0.00000E+00  0.44809E-02  0.10713E+00  0.00000E+00  0.12252E-01  0.99655E-01  0.00000E+00  0.17164E-01  0.10889E+00  0.00000E+00  0.23197E-01  0.10270E+00  0.00000E+00  0.29075E-01  0.10103E+00  0.00000E+00  0.36284E-01
        0.97435E-01  0.00000E+00  0.42669E-01  0.95409E-01  0.00000E+00  0.49560E-01  0.93778E-01  0.00000E+00  0.56266E-01  0.92665E-01  0.00000E+00  0.63110E-01  0.91802E-01  0.00000E+00  0.70082E-01  0.91071E-01  0.00000E+00  0.77092E-01
        0.90410E-01  0.00000E+00  0.84172E-01  0.89791E-01  0.00000E+00  0.91305E-01  0.89196E-01  0.00000E+00  0.98483E-01  0.88624E-01  0.00000E+00  0.10571E+00  0.88069E-01  0.00000E+00  0.11297E+00  0.87533E-01  0.00000E+00  0.12028E+00
        0.87015E-01  0.00000E+00  0.12763E+00  0.86516E-01  0.00000E+00  0.13501E+00  0.86037E-01  0.00000E+00  0.14243E+00  0.85580E-01  0.00000E+00  0.14987E+00  0.85143E-01  0.00000E+00  0.15737E+00  0.84735E-01  0.00000E+00  0.16485E+00
        0.84350E-01  0.00000E+00  0.17236E+00  0.84002E-01  0.00000E+00  0.18006E+00  0.83687E-01  0.00000E+00  0.18727E+00  0.83420E-01  0.00000E+00  0.19531E+00  0.83215E-01  0.00000E+00  0.20286E+00  0.83029E-01  0.00000E+00  0.20917E+00
        0.11400E+00  0.00000E+00  0.41454E-02  0.12151E+00  0.00000E+00  0.11696E-01  0.11829E+00  0.00000E+00  0.19148E-01  0.12634E+00  0.00000E+00  0.23839E-01  0.11934E+00  0.00000E+00  0.29709E-01  0.11528E+00  0.00000E+00  0.36155E-01
        0.11264E+00  0.00000E+00  0.42714E-01  0.11015E+00  0.00000E+00  0.49436E-01  0.10842E+00  0.00000E+00  0.56238E-01  0.10712E+00  0.00000E+00  0.63075E-01  0.10611E+00  0.00000E+00  0.70014E-01  0.10525E+00  0.00000E+00  0.77013E-01
        0.10449E+00  0.00000E+00  0.84071E-01  0.10378E+00  0.00000E+00  0.91184E-01  0.10310E+00  0.00000E+00  0.98345E-01  0.10244E+00  0.00000E+00  0.10555E+00  0.10181E+00  0.00000E+00  0.11280E+00  0.10120E+00  0.00000E+00  0.12010E+00
        0.10061E+00  0.00000E+00  0.12743E+00  0.10005E+00  0.00000E+00  0.13480E+00  0.99513E-01  0.00000E+00  0.14220E+00  0.99002E-01  0.00000E+00  0.14963E+00  0.98518E-01  0.00000E+00  0.15712E+00  0.98067E-01  0.00000E+00  0.16457E+00
        0.97646E-01  0.00000E+00  0.17207E+00  0.97268E-01  0.00000E+00  0.17975E+00  0.96925E-01  0.00000E+00  0.18693E+00  0.96641E-01  0.00000E+00  0.19497E+00  0.96428E-01  0.00000E+00  0.20247E+00  0.96208E-01  0.00000E+00  0.20875E+00
[...]
<PointData>
      <DataArray type="Float32" Name="Velocity vectors"  NumberOfComponents="3"  format="ascii" >
          0.74398E-01  0.00000E+00  0.65017E-03  0.10373E-01  0.00000E+00 -0.33055E-01  0.60711E-02  0.00000E+00 -0.32479E-01  0.13801E-01  0.00000E+00 -0.33805E-01  0.11163E-01  0.00000E+00 -0.29188E-01  0.79867E-02  0.00000E+00 -0.28144E-01
          0.11008E-01  0.00000E+00 -0.30049E-01  0.15798E-01  0.00000E+00 -0.38692E-01  0.16863E-01  0.00000E+00 -0.52775E-01  0.15779E-01  0.00000E+00 -0.67075E-01  0.14005E-01  0.00000E+00 -0.79874E-01  0.12314E-01  0.00000E+00 -0.92615E-01
          0.11112E-01  0.00000E+00 -0.10468E+00  0.10006E-01  0.00000E+00 -0.11608E+00  0.91567E-02  0.00000E+00 -0.12703E+00  0.84942E-02  0.00000E+00 -0.13756E+00  0.79953E-02  0.00000E+00 -0.14774E+00  0.76016E-02  0.00000E+00 -0.15767E+00
          0.72749E-02  0.00000E+00 -0.16736E+00  0.70127E-02  0.00000E+00 -0.17688E+00  0.67585E-02  0.00000E+00 -0.18632E+00  0.65438E-02  0.00000E+00 -0.19561E+00  0.63536E-02  0.00000E+00 -0.20482E+00  0.60013E-02  0.00000E+00 -0.21397E+00
          0.59816E-02  0.00000E+00 -0.22265E+00  0.56610E-02  0.00000E+00 -0.23154E+00  0.48070E-02  0.00000E+00 -0.24043E+00  0.69502E-02  0.00000E+00 -0.24725E+00  0.36809E-02  0.00000E+00 -0.25640E+00  0.39960E-02  0.00000E+00 -0.26946E+00
          0.41990E-01  0.00000E+00  0.27313E-02  0.97468E-02  0.00000E+00  0.81958E-02  0.64775E-01  0.00000E+00 -0.41802E-01  0.50062E-01  0.00000E+00 -0.11161E-01 -0.38581E-01  0.00000E+00 -0.58973E-01  0.71485E-01  0.00000E+00 -0.61301E-01
         -0.16508E-01  0.00000E+00 -0.73276E-01  0.56407E-01  0.00000E+00 -0.78914E-01  0.27348E-01  0.00000E+00 -0.87574E-01  0.36235E-01  0.00000E+00 -0.92441E-01  0.31525E-01  0.00000E+00 -0.98391E-01  0.30143E-01  0.00000E+00 -0.10590E+00
          0.28309E-01  0.00000E+00 -0.11345E+00  0.26849E-01  0.00000E+00 -0.12162E+00  0.25569E-01  0.00000E+00 -0.13032E+00  0.24417E-01  0.00000E+00 -0.13916E+00  0.23393E-01  0.00000E+00 -0.14820E+00  0.22505E-01  0.00000E+00 -0.15737E+00
          0.21718E-01  0.00000E+00 -0.16653E+00  0.21128E-01  0.00000E+00 -0.17566E+00  0.20576E-01  0.00000E+00 -0.18494E+00  0.19992E-01  0.00000E+00 -0.19405E+00  0.19493E-01  0.00000E+00 -0.20294E+00  0.18838E-01  0.00000E+00 -0.21244E+00
          0.18196E-01  0.00000E+00 -0.22078E+00  0.18014E-01  0.00000E+00 -0.22925E+00  0.16281E-01  0.00000E+00 -0.24020E+00  0.17939E-01  0.00000E+00 -0.24448E+00  0.15164E-01  0.00000E+00 -0.25508E+00  0.16687E-01  0.00000E+00 -0.26812E+00
          0.53639E-01  0.00000E+00 -0.52625E-03  0.53998E-01  0.00000E+00 -0.43579E-02  0.10880E+00  0.00000E+00 -0.42899E-01  0.78295E-01  0.00000E+00 -0.31009E-01  0.28541E-02  0.00000E+00 -0.56024E-01  0.11097E+00  0.00000E+00 -0.60866E-01
         -0.32723E-02  0.00000E+00 -0.84814E-01  0.79180E-01  0.00000E+00 -0.88306E-01  0.30378E-01  0.00000E+00 -0.10202E+00  0.47293E-01  0.00000E+00 -0.10277E+00  0.40794E-01  0.00000E+00 -0.10749E+00  0.42000E-01  0.00000E+00 -0.11328E+00
          0.41418E-01  0.00000E+00 -0.11885E+00  0.40944E-01  0.00000E+00 -0.12553E+00  0.40337E-01  0.00000E+00 -0.13278E+00  0.39689E-01  0.00000E+00 -0.14034E+00  0.38939E-01  0.00000E+00 -0.14833E+00  0.38208E-01  0.00000E+00 -0.15664E+00
          0.37446E-01  0.00000E+00 -0.16516E+00  0.36678E-01  0.00000E+00 -0.17373E+00  0.35890E-01  0.00000E+00 -0.18260E+00  0.35077E-01  0.00000E+00 -0.19135E+00  0.34217E-01  0.00000E+00 -0.19988E+00  0.33410E-01  0.00000E+00 -0.20944E+00
          0.32478E-01  0.00000E+00 -0.21751E+00  0.31723E-01  0.00000E+00 -0.22600E+00  0.30817E-01  0.00000E+00 -0.23753E+00  0.30501E-01  0.00000E+00 -0.24145E+00  0.29052E-01  0.00000E+00 -0.25336E+00  0.29176E-01  0.00000E+00 -0.26598E+00
          0.11654E+00  0.00000E+00 -0.41669E-02  0.97059E-01  0.00000E+00 -0.26088E-01  0.12030E+00  0.00000E+00 -0.29109E-01  0.11376E+00  0.00000E+00 -0.16228E-01  0.35866E-01  0.00000E+00 -0.74404E-01  0.13253E+00  0.00000E+00 -0.63967E-01
          0.34445E-01  0.00000E+00 -0.92486E-01  0.85726E-01  0.00000E+00 -0.86973E-01  0.45029E-01  0.00000E+00 -0.99261E-01  0.54156E-01  0.00000E+00 -0.10342E+00  0.50959E-01  0.00000E+00 -0.10887E+00  0.52396E-01  0.00000E+00 -0.11466E+00
          0.52688E-01  0.00000E+00 -0.12043E+00  0.53003E-01  0.00000E+00 -0.12681E+00  0.53022E-01  0.00000E+00 -0.13356E+00  0.52896E-01  0.00000E+00 -0.14066E+00  0.52558E-01  0.00000E+00 -0.14813E+00  0.52134E-01  0.00000E+00 -0.15592E+00
          0.51605E-01  0.00000E+00 -0.16399E+00  0.51015E-01  0.00000E+00 -0.17218E+00  0.50352E-01  0.00000E+00 -0.18079E+00  0.49646E-01  0.00000E+00 -0.18942E+00  0.48815E-01  0.00000E+00 -0.19787E+00  0.48047E-01  0.00000E+00 -0.20749E+00
          0.47128E-01  0.00000E+00 -0.21563E+00  0.46237E-01  0.00000E+00 -0.22430E+00  0.45684E-01  0.00000E+00 -0.23608E+00  0.44568E-01  0.00000E+00 -0.23991E+00  0.44873E-01  0.00000E+00 -0.25239E+00  0.44231E-01  0.00000E+00 -0.26560E+00
          0.14918E+00  0.00000E+00 -0.54185E-02  0.13751E+00  0.00000E+00 -0.22634E-01  0.10083E+00  0.00000E+00 -0.14642E-01  0.14673E+00  0.00000E+00 -0.20244E-01  0.93458E-01  0.00000E+00 -0.47272E-01  0.18019E+00  0.00000E+00 -0.35170E-01
          0.57546E-01  0.00000E+00 -0.85309E-01  0.91239E-01  0.00000E+00 -0.81171E-01  0.60164E-01  0.00000E+00 -0.93891E-01  0.64106E-01  0.00000E+00 -0.97628E-01  0.61838E-01  0.00000E+00 -0.10401E+00  0.63309E-01  0.00000E+00 -0.11049E+00
          0.64274E-01  0.00000E+00 -0.11689E+00  0.65225E-01  0.00000E+00 -0.12389E+00  0.65863E-01  0.00000E+00 -0.13120E+00  0.66298E-01  0.00000E+00 -0.13879E+00  0.66467E-01  0.00000E+00 -0.14664E+00  0.66463E-01  0.00000E+00 -0.15476E+00
          0.66263E-01  0.00000E+00 -0.16309E+00  0.65915E-01  0.00000E+00 -0.17145E+00  0.65414E-01  0.00000E+00 -0.18020E+00  0.64804E-01  0.00000E+00 -0.18889E+00  0.64065E-01  0.00000E+00 -0.19739E+00  0.63295E-01  0.00000E+00 -0.20710E+00
          0.62414E-01  0.00000E+00 -0.21522E+00  0.61607E-01  0.00000E+00 -0.22401E+00  0.60759E-01  0.00000E+00 -0.23596E+00  0.60104E-01  0.00000E+00 -0.23979E+00  0.59355E-01  0.00000E+00 -0.25266E+00  0.59313E-01  0.00000E+00 -0.26564E+00
          0.18068E+00  0.00000E+00 -0.39814E-02  0.14368E+00  0.00000E+00 -0.13418E-01  0.11433E+00  0.00000E+00 -0.13774E-01  0.18366E+00  0.00000E+00 -0.38007E-01  0.13775E+00  0.00000E+00 -0.61350E-01  0.19712E+00  0.00000E+00 -0.41191E-01
          0.96563E-01  0.00000E+00 -0.77222E-01  0.99255E-01  0.00000E+00 -0.71540E-01  0.74960E-01  0.00000E+00 -0.84104E-01  0.74564E-01  0.00000E+00 -0.91047E-01  0.74766E-01  0.00000E+00 -0.98280E-01  0.76458E-01  0.00000E+00 -0.10585E+00
          0.78010E-01  0.00000E+00 -0.11362E+00  0.79351E-01  0.00000E+00 -0.12154E+00  0.80269E-01  0.00000E+00 -0.12961E+00  0.80884E-01  0.00000E+00 -0.13784E+00  0.81169E-01  0.00000E+00 -0.14612E+00  0.81226E-01  0.00000E+00 -0.15454E+00
          0.81064E-01  0.00000E+00 -0.16305E+00  0.80762E-01  0.00000E+00 -0.17151E+00  0.80304E-01  0.00000E+00 -0.18034E+00  0.79758E-01  0.00000E+00 -0.18903E+00  0.79102E-01  0.00000E+00 -0.19757E+00  0.78390E-01  0.00000E+00 -0.20735E+00
          0.77631E-01  0.00000E+00 -0.21540E+00  0.76874E-01  0.00000E+00 -0.22434E+00  0.76185E-01  0.00000E+00 -0.23638E+00  0.75543E-01  0.00000E+00 -0.24000E+00  0.75369E-01  0.00000E+00 -0.25324E+00  0.74983E-01  0.00000E+00 -0.26644E+00
          0.18004E+00  0.00000E+00 -0.13730E-02  0.22238E+00  0.00000E+00 -0.77853E-02  0.13241E+00  0.00000E+00 -0.60452E-01  0.20557E+00  0.00000E+00 -0.48434E-01  0.16947E+00  0.00000E+00 -0.82613E-01  0.18124E+00  0.00000E+00 -0.65421E-01
          0.13478E+00  0.00000E+00 -0.72057E-01  0.11403E+00  0.00000E+00 -0.71760E-01  0.96390E-01  0.00000E+00 -0.82859E-01  0.91468E-01  0.00000E+00 -0.92083E-01  0.91270E-01  0.00000E+00 -0.99440E-01  0.92162E-01  0.00000E+00 -0.10721E+00
          0.93506E-01  0.00000E+00 -0.11487E+00  0.94694E-01  0.00000E+00 -0.12243E+00  0.95527E-01  0.00000E+00 -0.13025E+00  0.96096E-01  0.00000E+00 -0.13826E+00  0.96386E-01  0.00000E+00 -0.14637E+00  0.96477E-01  0.00000E+00 -0.15473E+00
          0.96376E-01  0.00000E+00 -0.16325E+00  0.96150E-01  0.00000E+00 -0.17177E+00  0.95773E-01  0.00000E+00 -0.18072E+00  0.95318E-01  0.00000E+00 -0.18952E+00  0.94754E-01  0.00000E+00 -0.19819E+00  0.94127E-01  0.00000E+00 -0.20812E+00
          0.93466E-01  0.00000E+00 -0.21623E+00  0.92798E-01  0.00000E+00 -0.22534E+00  0.92108E-01  0.00000E+00 -0.23750E+00  0.91631E-01  0.00000E+00 -0.24113E+00  0.90941E-01  0.00000E+00 -0.25457E+00  0.90713E-01  0.00000E+00 -0.26763E+00
          0.19651E+00  0.00000E+00 -0.84573E-02  0.22607E+00  0.00000E+00 -0.50071E-02  0.19718E+00  0.00000E+00 -0.47649E-02  0.29027E+00  0.00000E+00 -0.51485E-01  0.21986E+00  0.00000E+00 -0.55053E-01  0.16639E+00  0.00000E+00 -0.77573E-01
          0.15548E+00  0.00000E+00 -0.77337E-01  0.12833E+00  0.00000E+00 -0.83594E-01  0.11459E+00  0.00000E+00 -0.88945E-01  0.10716E+00  0.00000E+00 -0.96046E-01  0.10552E+00  0.00000E+00 -0.10302E+00  0.10583E+00  0.00000E+00 -0.10992E+00
          0.10715E+00  0.00000E+00 -0.11701E+00  0.10855E+00  0.00000E+00 -0.12434E+00  0.10971E+00  0.00000E+00 -0.13195E+00  0.11062E+00  0.00000E+00 -0.13984E+00  0.11122E+00  0.00000E+00 -0.14793E+00  0.11155E+00  0.00000E+00 -0.15628E+00
          0.11164E+00  0.00000E+00 -0.16480E+00  0.11156E+00  0.00000E+00 -0.17333E+00  0.11129E+00  0.00000E+00 -0.18227E+00  0.11093E+00  0.00000E+00 -0.19104E+00  0.11045E+00  0.00000E+00 -0.19973E+00  0.10987E+00  0.00000E+00 -0.20966E+00
          0.10932E+00  0.00000E+00 -0.21769E+00  0.10870E+00  0.00000E+00 -0.22688E+00  0.10803E+00  0.00000E+00 -0.23901E+00  0.10765E+00  0.00000E+00 -0.24249E+00  0.10708E+00  0.00000E+00 -0.25611E+00  0.10674E+00  0.00000E+00 -0.26919E+00
          0.21820E+00  0.00000E+00 -0.38092E-02  0.20775E+00  0.00000E+00 -0.19235E-02  0.26710E+00  0.00000E+00 -0.41923E-01  0.29532E+00  0.00000E+00 -0.12679E-01  0.22732E+00  0.00000E+00 -0.32074E-01  0.17306E+00  0.00000E+00 -0.67816E-01
          0.16971E+00  0.00000E+00 -0.61556E-01  0.13117E+00  0.00000E+00 -0.78920E-01  0.12711E+00  0.00000E+00 -0.82597E-01  0.12015E+00  0.00000E+00 -0.89952E-01  0.11919E+00  0.00000E+00 -0.97676E-01  0.12014E+00  0.00000E+00 -0.10551E+00
          0.12183E+00  0.00000E+00 -0.11354E+00  0.12357E+00  0.00000E+00 -0.12188E+00  0.12502E+00  0.00000E+00 -0.13034E+00  0.12612E+00  0.00000E+00 -0.13894E+00  0.12684E+00  0.00000E+00 -0.14762E+00  0.12726E+00  0.00000E+00 -0.15642E+00
          0.12741E+00  0.00000E+00 -0.16528E+00  0.12739E+00  0.00000E+00 -0.17409E+00  0.12717E+00  0.00000E+00 -0.18326E+00  0.12687E+00  0.00000E+00 -0.19219E+00  0.12646E+00  0.00000E+00 -0.20103E+00  0.12595E+00  0.00000E+00 -0.21109E+00
          0.12547E+00  0.00000E+00 -0.21915E+00  0.12493E+00  0.00000E+00 -0.22849E+00  0.12428E+00  0.00000E+00 -0.24068E+00  0.12396E+00  0.00000E+00 -0.24413E+00  0.12315E+00  0.00000E+00 -0.25790E+00  0.12283E+00  0.00000E+00 -0.27092E+00
          0.23217E+00  0.00000E+00 -0.67629E-02  0.25168E+00  0.00000E+00 -0.13796E-01  0.29515E+00  0.00000E+00 -0.36733E-01  0.24427E+00  0.00000E+00 -0.40004E-01  0.28629E+00  0.00000E+00 -0.13333E-01  0.21630E+00  0.00000E+00 -0.53299E-01
          0.19532E+00  0.00000E+00 -0.54793E-01  0.15470E+00  0.00000E+00 -0.78387E-01  0.14591E+00  0.00000E+00 -0.85437E-01  0.13904E+00  0.00000E+00 -0.94083E-01  0.13675E+00  0.00000E+00 -0.10284E+00  0.13754E+00  0.00000E+00 -0.11073E+00
          0.13889E+00  0.00000E+00 -0.11860E+00  0.14039E+00  0.00000E+00 -0.12670E+00  0.14169E+00  0.00000E+00 -0.13480E+00  0.14264E+00  0.00000E+00 -0.14300E+00  0.14326E+00  0.00000E+00 -0.15132E+00  0.14360E+00  0.00000E+00 -0.15981E+00
          0.14368E+00  0.00000E+00 -0.16838E+00  0.14362E+00  0.00000E+00 -0.17696E+00  0.14338E+00  0.00000E+00 -0.18595E+00  0.14308E+00  0.00000E+00 -0.19471E+00  0.14269E+00  0.00000E+00 -0.20344E+00  0.14219E+00  0.00000E+00 -0.21342E+00
          0.14176E+00  0.00000E+00 -0.22135E+00  0.14124E+00  0.00000E+00 -0.23069E+00  0.14056E+00  0.00000E+00 -0.24279E+00  0.14031E+00  0.00000E+00 -0.24612E+00  0.13942E+00  0.00000E+00 -0.25998E+00  0.13907E+00  0.00000E+00 -0.27289E+00
          0.25891E+00  0.00000E+00 -0.66279E-02  0.29664E+00  0.00000E+00 -0.21527E-01  0.31406E+00  0.00000E+00 -0.18321E-01  0.23861E+00  0.00000E+00 -0.42385E-01  0.31268E+00  0.00000E+00 -0.31116E-01  0.25728E+00  0.00000E+00 -0.67179E-01
          0.23907E+00  0.00000E+00 -0.56034E-01  0.18549E+00  0.00000E+00 -0.77059E-01  0.17049E+00  0.00000E+00 -0.86976E-01  0.15938E+00  0.00000E+00 -0.97529E-01  0.15404E+00  0.00000E+00 -0.10650E+00  0.15370E+00  0.00000E+00 -0.11454E+00
          0.15440E+00  0.00000E+00 -0.12226E+00  0.15562E+00  0.00000E+00 -0.13003E+00  0.15688E+00  0.00000E+00 -0.13785E+00  0.15789E+00  0.00000E+00 -0.14579E+00  0.15861E+00  0.00000E+00 -0.15388E+00  0.15907E+00  0.00000E+00 -0.16220E+00
          0.15928E+00  0.00000E+00 -0.17063E+00  0.15934E+00  0.00000E+00 -0.17911E+00  0.15921E+00  0.00000E+00 -0.18804E+00  0.15902E+00  0.00000E+00 -0.19672E+00  0.15875E+00  0.00000E+00 -0.20546E+00  0.15835E+00  0.00000E+00 -0.21542E+00
          0.15802E+00  0.00000E+00 -0.22329E+00  0.15758E+00  0.00000E+00 -0.23271E+00  0.15692E+00  0.00000E+00 -0.24477E+00  0.15674E+00  0.00000E+00 -0.24803E+00  0.15572E+00  0.00000E+00 -0.26201E+00  0.15537E+00  0.00000E+00 -0.27489E+00
          0.30277E+00  0.00000E+00 -0.44088E-02  0.32239E+00  0.00000E+00 -0.19429E-01  0.33711E+00  0.00000E+00 -0.18966E-01  0.26329E+00  0.00000E+00 -0.43263E-01  0.33965E+00  0.00000E+00 -0.33464E-01  0.28599E+00  0.00000E+00 -0.71046E-01
          0.26472E+00  0.00000E+00 -0.62620E-01  0.21361E+00  0.00000E+00 -0.80306E-01  0.19581E+00  0.00000E+00 -0.87616E-01  0.18111E+00  0.00000E+00 -0.98200E-01  0.17249E+00  0.00000E+00 -0.10807E+00  0.17064E+00  0.00000E+00 -0.11688E+00
          0.17045E+00  0.00000E+00 -0.12512E+00  0.17133E+00  0.00000E+00 -0.13316E+00  0.17249E+00  0.00000E+00 -0.14115E+00  0.17352E+00  0.00000E+00 -0.14912E+00  0.17432E+00  0.00000E+00 -0.15717E+00  0.17488E+00  0.00000E+00 -0.16540E+00
          0.17519E+00  0.00000E+00 -0.17370E+00  0.17535E+00  0.00000E+00 -0.18207E+00  0.17532E+00  0.00000E+00 -0.19088E+00  0.17522E+00  0.00000E+00 -0.19942E+00  0.17504E+00  0.00000E+00 -0.20807E+00  0.17470E+00  0.00000E+00 -0.21795E+00
          0.17445E+00  0.00000E+00 -0.22569E+00  0.17406E+00  0.00000E+00 -0.23512E+00  0.17339E+00  0.00000E+00 -0.24708E+00  0.17328E+00  0.00000E+00 -0.25023E+00  0.17214E+00  0.00000E+00 -0.26431E+00  0.17178E+00  0.00000E+00 -0.27702E+00
          0.33624E+00  0.00000E+00 -0.33342E-02  0.35105E+00  0.00000E+00 -0.19221E-01  0.36497E+00  0.00000E+00 -0.18867E-01  0.29170E+00  0.00000E+00 -0.44771E-01  0.36561E+00  0.00000E+00 -0.36759E-01  0.31852E+00  0.00000E+00 -0.71454E-01
          0.29113E+00  0.00000E+00 -0.64304E-01  0.23898E+00  0.00000E+00 -0.83326E-01  0.22103E+00  0.00000E+00 -0.90076E-01  0.20447E+00  0.00000E+00 -0.10040E+00  0.19304E+00  0.00000E+00 -0.11005E+00  0.18917E+00  0.00000E+00 -0.11905E+00
          0.18743E+00  0.00000E+00 -0.12760E+00  0.18738E+00  0.00000E+00 -0.13575E+00  0.18806E+00  0.00000E+00 -0.14377E+00  0.18886E+00  0.00000E+00 -0.15170E+00  0.18960E+00  0.00000E+00 -0.15967E+00  0.19021E+00  0.00000E+00 -0.16782E+00
          0.19062E+00  0.00000E+00 -0.17603E+00  0.19092E+00  0.00000E+00 -0.18432E+00  0.19104E+00  0.00000E+00 -0.19307E+00  0.19110E+00  0.00000E+00 -0.20153E+00  0.19108E+00  0.00000E+00 -0.21017E+00  0.19087E+00  0.00000E+00 -0.22002E+00
          0.19076E+00  0.00000E+00 -0.22767E+00  0.19047E+00  0.00000E+00 -0.23719E+00  0.18983E+00  0.00000E+00 -0.24909E+00  0.18982E+00  0.00000E+00 -0.25215E+00  0.18860E+00  0.00000E+00 -0.26636E+00  0.18827E+00  0.00000E+00 -0.27903E+00
          0.36701E+00  0.00000E+00 -0.30788E-02  0.38096E+00  0.00000E+00 -0.19865E-01  0.39590E+00  0.00000E+00 -0.18999E-01  0.32192E+00  0.00000E+00 -0.46968E-01  0.39082E+00  0.00000E+00 -0.38336E-01  0.34926E+00  0.00000E+00 -0.70755E-01
          0.31763E+00  0.00000E+00 -0.65332E-01  0.26470E+00  0.00000E+00 -0.85128E-01  0.24399E+00  0.00000E+00 -0.91631E-01  0.22549E+00  0.00000E+00 -0.10203E+00  0.21228E+00  0.00000E+00 -0.11119E+00  0.20707E+00  0.00000E+00 -0.11989E+00
          0.20412E+00  0.00000E+00 -0.12855E+00  0.20334E+00  0.00000E+00 -0.13682E+00  0.20365E+00  0.00000E+00 -0.14504E+00  0.20432E+00  0.00000E+00 -0.15317E+00  0.20508E+00  0.00000E+00 -0.16131E+00  0.20579E+00  0.00000E+00 -0.16961E+00
          0.20634E+00  0.00000E+00 -0.17792E+00  0.20682E+00  0.00000E+00 -0.18630E+00  0.20709E+00  0.00000E+00 -0.19512E+00  0.20730E+00  0.00000E+00 -0.20359E+00  0.20742E+00  0.00000E+00 -0.21230E+00  0.20733E+00  0.00000E+00 -0.22216E+00
          0.20733E+00  0.00000E+00 -0.22976E+00  0.20712E+00  0.00000E+00 -0.23936E+00  0.20649E+00  0.00000E+00 -0.25120E+00  0.20657E+00  0.00000E+00 -0.25419E+00  0.20522E+00  0.00000E+00 -0.26856E+00  0.20490E+00  0.00000E+00 -0.28105E+00
          0.39835E+00  0.00000E+00 -0.32311E-02  0.41240E+00  0.00000E+00 -0.20589E-01  0.42902E+00  0.00000E+00 -0.18503E-01  0.35284E+00  0.00000E+00 -0.49404E-01  0.41396E+00  0.00000E+00 -0.38476E-01  0.37698E+00  0.00000E+00 -0.69779E-01
          0.34383E+00  0.00000E+00 -0.64833E-01  0.29128E+00  0.00000E+00 -0.84772E-01  0.26768E+00  0.00000E+00 -0.91147E-01  0.24702E+00  0.00000E+00 -0.10222E+00  0.23222E+00  0.00000E+00 -0.11164E+00  0.22593E+00  0.00000E+00 -0.12036E+00
          0.22188E+00  0.00000E+00 -0.12928E+00  0.22032E+00  0.00000E+00 -0.13768E+00  0.22011E+00  0.00000E+00 -0.14608E+00  0.22045E+00  0.00000E+00 -0.15438E+00  0.22105E+00  0.00000E+00 -0.16263E+00  0.22171E+00  0.00000E+00 -0.17104E+00
          0.22228E+00  0.00000E+00 -0.17942E+00  0.22282E+00  0.00000E+00 -0.18786E+00  0.22319E+00  0.00000E+00 -0.19675E+00  0.22352E+00  0.00000E+00 -0.20522E+00  0.22377E+00  0.00000E+00 -0.21400E+00  0.22377E+00  0.00000E+00 -0.22389E+00
          0.22390E+00  0.00000E+00 -0.23143E+00  0.22379E+00  0.00000E+00 -0.24117E+00  0.22317E+00  0.00000E+00 -0.25298E+00  0.22337E+00  0.00000E+00 -0.25586E+00  0.22191E+00  0.00000E+00 -0.27042E+00  0.22166E+00  0.00000E+00 -0.28285E+00
          0.43083E+00  0.00000E+00 -0.34333E-02  0.44463E+00  0.00000E+00 -0.20619E-01  0.46376E+00  0.00000E+00 -0.17020E-01  0.38436E+00  0.00000E+00 -0.51836E-01  0.43374E+00  0.00000E+00 -0.36514E-01  0.40117E+00  0.00000E+00 -0.68206E-01
          0.36905E+00  0.00000E+00 -0.63159E-01  0.31830E+00  0.00000E+00 -0.83108E-01  0.29183E+00  0.00000E+00 -0.89678E-01  0.26862E+00  0.00000E+00 -0.10140E+00  0.25199E+00  0.00000E+00 -0.11120E+00  0.24449E+00  0.00000E+00 -0.11989E+00
          0.23940E+00  0.00000E+00 -0.12906E+00  0.23718E+00  0.00000E+00 -0.13757E+00  0.23655E+00  0.00000E+00 -0.14612E+00  0.23667E+00  0.00000E+00 -0.15462E+00  0.23719E+00  0.00000E+00 -0.16307E+00  0.23786E+00  0.00000E+00 -0.17168E+00
          0.23851E+00  0.00000E+00 -0.18024E+00  0.23918E+00  0.00000E+00 -0.18887E+00  0.23967E+00  0.00000E+00 -0.19792E+00  0.24013E+00  0.00000E+00 -0.20650E+00  0.24051E+00  0.00000E+00 -0.21545E+00  0.24061E+00  0.00000E+00 -0.22543E+00
          0.24084E+00  0.00000E+00 -0.23298E+00  0.24079E+00  0.00000E+00 -0.24290E+00  0.24017E+00  0.00000E+00 -0.25469E+00  0.24045E+00  0.00000E+00 -0.25752E+00  0.23885E+00  0.00000E+00 -0.27230E+00  0.23863E+00  0.00000E+00 -0.28459E+00
          0.46332E+00  0.00000E+00 -0.35381E-02  0.47568E+00  0.00000E+00 -0.18629E-01  0.49909E+00  0.00000E+00 -0.14000E-01  0.41712E+00  0.00000E+00 -0.52445E-01  0.44877E+00  0.00000E+00 -0.31543E-01  0.42143E+00  0.00000E+00 -0.65456E-01