<?xml version="1.0"?>
<VTKFile type="UnstructuredGrid" version="0.1" byte_order="LittleEndian" compressor="vtkZLibDataCompressor">
<UnstructuredGrid>
  <Piece NumberOfPoints="1800"        NumberOfCells="1"      >
    <Points>
      <DataArray type="Float32" NumberOfComponents="3" format="ascii" >
        0.32803E-01  0.00000E+00  0.24900E-02  0.20321E-01  0.00000E+00  0.38627E-02  0.84077E-02  0.00000E+00  0.62456E-02  0.11644E-01  0.00000E+00  0.12782E-01  0.77529E-02  0.00000E+00  0.17755E-01  0.80860E-02  0.00000E+00  0.24510E-01
        0.77846E-02  0.00000E+00  0.31109E-01  0.86708E-02  0.00000E+00  0.37545E-01  0.84762E-02  0.00000E+00  0.43908E-01  0.90363E-02  0.00000E+00  0.50094E-01  0.91752E-02  0.00000E+00  0.56046E-01  0.97851E-02  0.00000E+00  0.61665E-01
        0.99000E-02  0.00000E+00  0.67038E-01  0.10028E-01  0.00000E+00  0.72295E-01  0.98983E-02  0.00000E+00  0.77529E-01  0.97962E-02  0.00000E+00  0.82798E-01  0.96164E-02  0.00000E+00  0.88105E-01  0.94333E-02  0.00000E+00  0.93454E-01
        0.92273E-02  0.00000E+00  0.98863E-01  0.90103E-02  0.00000E+00  0.10433E+00  0.87912E-02  0.00000E+00  0.10988E+00  0.85617E-02  0.00000E+00  0.11550E+00  0.83205E-02  0.00000E+00  0.12120E+00  0.81123E-02  0.00000E+00  0.12703E+00
        0.79149E-02  0.00000E+00  0.13296E+00  0.75594E-02  0.00000E+00  0.13887E+00  0.74426E-02  0.00000E+00  0.14507E+00  0.79247E-02  0.00000E+00  0.15177E+00  0.65646E-02  0.00000E+00  0.15775E+00  0.66603E-02  0.00000E+00  0.16233E+00
        0.45302E-01  0.00000E+00  0.38059E-02  0.26355E-01  0.00000E+00  0.11122E-01  0.40070E-01  0.00000E+00  0.12107E-01  0.32503E-01  0.00000E+00  0.18086E-01  0.20681E-01  0.00000E+00  0.19156E-01  0.30964E-01  0.00000E+00  0.26446E-01
        0.20140E-01  0.00000E+00  0.28691E-01  0.29720E-01  0.00000E+00  0.34993E-01  0.20263E-01  0.00000E+00  0.39124E-01  0.29902E-01  0.00000E+00  0.44554E-01  0.21122E-01  0.00000E+00  0.49757E-01  0.29677E-01  0.00000E+00  0.54876E-01
        0.23522E-01  0.00000E+00  0.60774E-01  0.28314E-01  0.00000E+00  0.66437E-01  0.26100E-01  0.00000E+00  0.72363E-01  0.26996E-01  0.00000E+00  0.78388E-01  0.26353E-01  0.00000E+00  0.84365E-01  0.26192E-01  0.00000E+00  0.90414E-01
        0.25835E-01  0.00000E+00  0.96449E-01  0.25520E-01  0.00000E+00  0.10249E+00  0.25169E-01  0.00000E+00  0.10857E+00  0.24810E-01  0.00000E+00  0.11470E+00  0.24435E-01  0.00000E+00  0.12072E+00  0.24052E-01  0.00000E+00  0.12684E+00
        0.23628E-01  0.00000E+00  0.13324E+00  0.23430E-01  0.00000E+00  0.13915E+00  0.22553E-01  0.00000E+00  0.14503E+00  0.22993E-01  0.00000E+00  0.15264E+00  0.21729E-01  0.00000E+00  0.15797E+00  0.21984E-01  0.00000E+00  0.16255E+00
        0.61855E-01  0.00000E+00  0.34767E-02  0.52634E-01  0.00000E+00  0.10081E-01  0.66245E-01  0.00000E+00  0.12300E-01  0.56751E-01  0.00000E+00  0.17890E-01  0.44793E-01  0.00000E+00  0.20508E-01  0.54107E-01  0.00000E+00  0.26156E-01
        0.41750E-01  0.00000E+00  0.29180E-01  0.51222E-01  0.00000E+00  0.34858E-01  0.40218E-01  0.00000E+00  0.38646E-01  0.49756E-01  0.00000E+00  0.44359E-01  0.39566E-01  0.00000E+00  0.48858E-01  0.48456E-01  0.00000E+00  0.54622E-01
        0.40173E-01  0.00000E+00  0.59682E-01  0.45586E-01  0.00000E+00  0.65611E-01  0.42557E-01  0.00000E+00  0.71542E-01  0.43496E-01  0.00000E+00  0.77681E-01  0.42764E-01  0.00000E+00  0.83787E-01  0.42610E-01  0.00000E+00  0.89958E-01
        0.42186E-01  0.00000E+00  0.96133E-01  0.41844E-01  0.00000E+00  0.10230E+00  0.41443E-01  0.00000E+00  0.10850E+00  0.41055E-01  0.00000E+00  0.11476E+00  0.40606E-01  0.00000E+00  0.12091E+00  0.40210E-01  0.00000E+00  0.12712E+00
        0.39693E-01  0.00000E+00  0.13362E+00  0.39285E-01  0.00000E+00  0.13961E+00  0.38801E-01  0.00000E+00  0.14560E+00  0.38499E-01  0.00000E+00  0.15315E+00  0.37645E-01  0.00000E+00  0.15823E+00  0.37633E-01  0.00000E+00  0.16296E+00
        0.89194E-01  0.00000E+00  0.33493E-02  0.74813E-01  0.00000E+00  0.65385E-02  0.82879E-01  0.00000E+00  0.11872E-01  0.80427E-01  0.00000E+00  0.20160E-01  0.68685E-01  0.00000E+00  0.20801E-01  0.75905E-01  0.00000E+00  0.27889E-01
        0.63914E-01  0.00000E+00  0.29611E-01  0.72531E-01  0.00000E+00  0.36618E-01  0.61047E-01  0.00000E+00  0.39080E-01  0.69529E-01  0.00000E+00  0.45717E-01  0.58819E-01  0.00000E+00  0.49203E-01  0.66794E-01  0.00000E+00  0.55730E-01
        0.57995E-01  0.00000E+00  0.60202E-01  0.63010E-01  0.00000E+00  0.66473E-01  0.59060E-01  0.00000E+00  0.72078E-01  0.60233E-01  0.00000E+00  0.78232E-01  0.59181E-01  0.00000E+00  0.84315E-01  0.58974E-01  0.00000E+00  0.90470E-01
        0.58484E-01  0.00000E+00  0.96643E-01  0.58107E-01  0.00000E+00  0.10281E+00  0.57636E-01  0.00000E+00  0.10902E+00  0.57237E-01  0.00000E+00  0.11528E+00  0.56727E-01  0.00000E+00  0.12141E+00  0.56297E-01  0.00000E+00  0.12763E+00
        0.55805E-01  0.00000E+00  0.13410E+00  0.55317E-01  0.00000E+00  0.14001E+00  0.54986E-01  0.00000E+00  0.14601E+00  0.54457E-01  0.00000E+00  0.15354E+00  0.54544E-01  0.00000E+00  0.15847E+00  0.54210E-01  0.00000E+00  0.16308E+00
        0.11254E+00  0.00000E+00  0.34543E-02  0.10095E+00  0.00000E+00  0.73684E-02  0.93840E-01  0.00000E+00  0.14126E-01  0.10352E+00  0.00000E+00  0.19486E-01  0.91872E-01  0.00000E+00  0.23132E-01  0.10090E+00  0.00000E+00  0.28559E-01
        0.86573E-01  0.00000E+00  0.30559E-01  0.93952E-01  0.00000E+00  0.37094E-01  0.82397E-01  0.00000E+00  0.39843E-01  0.88930E-01  0.00000E+00  0.46784E-01  0.78353E-01  0.00000E+00  0.50075E-01  0.84538E-01  0.00000E+00  0.57047E-01
        0.76054E-01  0.00000E+00  0.61246E-01  0.79855E-01  0.00000E+00  0.67887E-01  0.76036E-01  0.00000E+00  0.73368E-01  0.76739E-01  0.00000E+00  0.79514E-01  0.75679E-01  0.00000E+00  0.85524E-01  0.75400E-01  0.00000E+00  0.91636E-01
        0.74858E-01  0.00000E+00  0.97727E-01  0.74452E-01  0.00000E+00  0.10381E+00  0.73957E-01  0.00000E+00  0.10994E+00  0.73536E-01  0.00000E+00  0.11611E+00  0.73041E-01  0.00000E+00  0.12213E+00  0.72588E-01  0.00000E+00  0.12827E+00
        0.72133E-01  0.00000E+00  0.13464E+00  0.71724E-01  0.00000E+00  0.14043E+00  0.71279E-01  0.00000E+00  0.14636E+00  0.70993E-01  0.00000E+00  0.15379E+00  0.70532E-01  0.00000E+00  0.15857E+00  0.70512E-01  0.00000E+00  0.16322E+00
        0.13019E+00  0.00000E+00  0.34725E-02  0.12246E+00  0.00000E+00  0.96271E-02  0.11108E+00  0.00000E+00  0.13119E-01  0.12880E+00  0.00000E+00  0.17443E-01  0.11784E+00  0.00000E+00  0.20055E-01  0.12520E+00  0.00000E+00  0.26522E-01
        0.11228E+00  0.00000E+00  0.27126E-01  0.11286E+00  0.00000E+00  0.35761E-01  0.10362E+00  0.00000E+00  0.38640E-01  0.10665E+00  0.00000E+00  0.46950E-01  0.97541E-01  0.00000E+00  0.50036E-01  0.10025E+00  0.00000E+00  0.57925E-01
        0.93981E-01  0.00000E+00  0.62882E-01  0.95978E-01  0.00000E+00  0.69501E-01  0.93269E-01  0.00000E+00  0.75127E-01  0.93358E-01  0.00000E+00  0.81261E-01  0.92419E-01  0.00000E+00  0.87147E-01  0.92090E-01  0.00000E+00  0.93159E-01
        0.91508E-01  0.00000E+00  0.99159E-01  0.91124E-01  0.00000E+00  0.10513E+00  0.90577E-01  0.00000E+00  0.11115E+00  0.90183E-01  0.00000E+00  0.11721E+00  0.89671E-01  0.00000E+00  0.12310E+00  0.89191E-01  0.00000E+00  0.12916E+00
        0.88794E-01  0.00000E+00  0.13543E+00  0.88317E-01  0.00000E+00  0.14103E+00  0.87928E-01  0.00000E+00  0.14695E+00  0.87684E-01  0.00000E+00  0.15437E+00  0.87553E-01  0.00000E+00  0.15890E+00  0.87367E-01  0.00000E+00  0.16343E+00
        0.14581E+00  0.00000E+00  0.34271E-02  0.15392E+00  0.00000E+00  0.92780E-02  0.13805E+00  0.00000E+00  0.10717E-01  0.15185E+00  0.00000E+00  0.17550E-01  0.14028E+00  0.00000E+00  0.18949E-01  0.14684E+00  0.00000E+00  0.25942E-01
        0.13640E+00  0.00000E+00  0.28199E-01  0.13181E+00  0.00000E+00  0.35430E-01  0.12256E+00  0.00000E+00  0.37621E-01  0.12020E+00  0.00000E+00  0.45468E-01  0.11793E+00  0.00000E+00  0.52338E-01  0.11179E+00  0.00000E+00  0.57750E-01
        0.11508E+00  0.00000E+00  0.64744E-01  0.11073E+00  0.00000E+00  0.69863E-01  0.11115E+00  0.00000E+00  0.76032E-01  0.11020E+00  0.00000E+00  0.81984E-01  0.10960E+00  0.00000E+00  0.87874E-01  0.10917E+00  0.00000E+00  0.93830E-01
        0.10860E+00  0.00000E+00  0.99783E-01  0.10822E+00  0.00000E+00  0.10570E+00  0.10765E+00  0.00000E+00  0.11167E+00  0.10726E+00  0.00000E+00  0.11766E+00  0.10675E+00  0.00000E+00  0.12348E+00  0.10624E+00  0.00000E+00  0.12950E+00
        0.10584E+00  0.00000E+00  0.13571E+00  0.10541E+00  0.00000E+00  0.14119E+00  0.10493E+00  0.00000E+00  0.14708E+00  0.10475E+00  0.00000E+00  0.15446E+00  0.10431E+00  0.00000E+00  0.15888E+00  0.10419E+00  0.00000E+00  0.16339E+00
        0.16393E+00  0.00000E+00  0.34285E-02  0.17354E+00  0.00000E+00  0.97188E-02  0.16463E+00  0.00000E+00  0.14140E-01  0.18194E+00  0.00000E+00  0.16207E-01  0.17157E+00  0.00000E+00  0.22029E-01  0.16084E+00  0.00000E+00  0.22978E-01
        0.15726E+00  0.00000E+00  0.31529E-01  0.14772E+00  0.00000E+00  0.35244E-01  0.14326E+00  0.00000E+00  0.42474E-01  0.13429E+00  0.00000E+00  0.44465E-01  0.13548E+00  0.00000E+00  0.52420E-01  0.12845E+00  0.00000E+00  0.56790E-01
        0.13178E+00  0.00000E+00  0.63512E-01  0.12806E+00  0.00000E+00  0.69096E-01  0.12839E+00  0.00000E+00  0.75365E-01  0.12749E+00  0.00000E+00  0.81263E-01  0.12683E+00  0.00000E+00  0.87156E-01  0.12638E+00  0.00000E+00  0.93155E-01
        0.12582E+00  0.00000E+00  0.99104E-01  0.12542E+00  0.00000E+00  0.10503E+00  0.12484E+00  0.00000E+00  0.11102E+00  0.12445E+00  0.00000E+00  0.11702E+00  0.12396E+00  0.00000E+00  0.12285E+00  0.12342E+00  0.00000E+00  0.12888E+00
        0.12306E+00  0.00000E+00  0.13509E+00  0.12260E+00  0.00000E+00  0.14056E+00  0.12207E+00  0.00000E+00  0.14649E+00  0.12191E+00  0.00000E+00  0.15387E+00  0.12152E+00  0.00000E+00  0.15822E+00  0.12131E+00  0.00000E+00  0.16274E+00
[...]
<PointData>
      <DataArray type="Float32" Name="Velocity vectors"  NumberOfComponents="3"  format="ascii" >
          0.80965E-01  0.00000E+00  0.38065E-03  0.63754E-01  0.00000E+00 -0.17448E-02  0.18378E-01  0.00000E+00 -0.21000E-01  0.70356E-01  0.00000E+00 -0.36637E-01 -0.78806E-02  0.00000E+00 -0.64536E-01  0.75980E-02  0.00000E+00 -0.62575E-01
          0.35581E-02  0.00000E+00 -0.72069E-01  0.62785E-02  0.00000E+00 -0.74820E-01 -0.35547E-02  0.00000E+00 -0.74823E-01 -0.17475E-02  0.00000E+00 -0.72725E-01 -0.35069E-02  0.00000E+00 -0.69413E-01  0.53685E-02  0.00000E+00 -0.65738E-01
          0.88130E-02  0.00000E+00 -0.65942E-01  0.14871E-01  0.00000E+00 -0.69957E-01  0.17456E-01  0.00000E+00 -0.76134E-01  0.19856E-01  0.00000E+00 -0.82492E-01  0.19992E-01  0.00000E+00 -0.89628E-01  0.20342E-01  0.00000E+00 -0.97217E-01
          0.19983E-01  0.00000E+00 -0.10513E+00  0.19527E-01  0.00000E+00 -0.11331E+00  0.18846E-01  0.00000E+00 -0.12181E+00  0.17715E-01  0.00000E+00 -0.13081E+00  0.16526E-01  0.00000E+00 -0.13965E+00  0.15565E-01  0.00000E+00 -0.14821E+00
          0.13266E-01  0.00000E+00 -0.15776E+00  0.10443E-01  0.00000E+00 -0.16733E+00  0.11409E-01  0.00000E+00 -0.17361E+00  0.10184E-01  0.00000E+00 -0.18029E+00  0.30767E-02  0.00000E+00 -0.19100E+00  0.51665E-02  0.00000E+00 -0.20016E+00
          0.89476E-01  0.00000E+00 -0.20839E-02  0.59969E-01  0.00000E+00 -0.63889E-02  0.75884E-01  0.00000E+00 -0.11254E-01  0.68544E-01  0.00000E+00 -0.21384E-01  0.29751E-01  0.00000E+00 -0.25798E-01  0.37862E-01  0.00000E+00 -0.33296E-01
          0.17234E-01  0.00000E+00 -0.50945E-01  0.22826E-01  0.00000E+00 -0.45909E-01  0.76031E-02  0.00000E+00 -0.63473E-01  0.16466E-01  0.00000E+00 -0.60464E-01 -0.79536E-02  0.00000E+00 -0.74362E-01  0.31408E-01  0.00000E+00 -0.82467E-01
         -0.26344E-01  0.00000E+00 -0.90442E-01  0.57843E-01  0.00000E+00 -0.10946E+00  0.12067E-01  0.00000E+00 -0.11229E+00  0.47337E-01  0.00000E+00 -0.11985E+00  0.36173E-01  0.00000E+00 -0.12622E+00  0.41279E-01  0.00000E+00 -0.13105E+00
          0.39874E-01  0.00000E+00 -0.13711E+00  0.39847E-01  0.00000E+00 -0.14258E+00  0.38931E-01  0.00000E+00 -0.14754E+00  0.37820E-01  0.00000E+00 -0.15304E+00  0.36188E-01  0.00000E+00 -0.15952E+00  0.34722E-01  0.00000E+00 -0.16354E+00
          0.32090E-01  0.00000E+00 -0.16847E+00  0.31618E-01  0.00000E+00 -0.17841E+00  0.25949E-01  0.00000E+00 -0.18069E+00  0.26658E-01  0.00000E+00 -0.18354E+00  0.20554E-01  0.00000E+00 -0.19775E+00  0.21001E-01  0.00000E+00 -0.20349E+00
          0.97094E-01  0.00000E+00 -0.79134E-03  0.95420E-01  0.00000E+00 -0.76442E-02  0.11480E+00  0.00000E+00 -0.12640E-01  0.10805E+00  0.00000E+00 -0.17628E-01  0.82711E-01  0.00000E+00 -0.24193E-01  0.74056E-01  0.00000E+00 -0.29589E-01
          0.46510E-01  0.00000E+00 -0.40941E-01  0.54626E-01  0.00000E+00 -0.46563E-01  0.38077E-01  0.00000E+00 -0.55234E-01  0.50459E-01  0.00000E+00 -0.61947E-01  0.31515E-01  0.00000E+00 -0.74781E-01  0.66066E-01  0.00000E+00 -0.80554E-01
          0.74562E-02  0.00000E+00 -0.95008E-01  0.92818E-01  0.00000E+00 -0.11285E+00  0.26649E-01  0.00000E+00 -0.11965E+00  0.68698E-01  0.00000E+00 -0.12535E+00  0.54490E-01  0.00000E+00 -0.13452E+00  0.60043E-01  0.00000E+00 -0.13920E+00
          0.57077E-01  0.00000E+00 -0.14545E+00  0.56799E-01  0.00000E+00 -0.15185E+00  0.55211E-01  0.00000E+00 -0.15694E+00  0.54143E-01  0.00000E+00 -0.16259E+00  0.52134E-01  0.00000E+00 -0.16926E+00  0.50874E-01  0.00000E+00 -0.17308E+00
          0.48148E-01  0.00000E+00 -0.17814E+00  0.46628E-01  0.00000E+00 -0.18736E+00  0.43938E-01  0.00000E+00 -0.18807E+00  0.41961E-01  0.00000E+00 -0.19221E+00  0.38251E-01  0.00000E+00 -0.20540E+00  0.38343E-01  0.00000E+00 -0.20957E+00
          0.14324E+00  0.00000E+00  0.74306E-03  0.11844E+00  0.00000E+00 -0.92657E-02  0.12676E+00  0.00000E+00 -0.16361E-01  0.12165E+00  0.00000E+00 -0.21142E-01  0.11210E+00  0.00000E+00 -0.16083E-01  0.10961E+00  0.00000E+00 -0.25284E-01
          0.84475E-01  0.00000E+00 -0.36419E-01  0.89141E-01  0.00000E+00 -0.41897E-01  0.69961E-01  0.00000E+00 -0.52830E-01  0.87485E-01  0.00000E+00 -0.59712E-01  0.68791E-01  0.00000E+00 -0.74160E-01  0.10730E+00  0.00000E+00 -0.79584E-01
          0.50377E-01  0.00000E+00 -0.98045E-01  0.13100E+00  0.00000E+00 -0.10633E+00  0.50532E-01  0.00000E+00 -0.12471E+00  0.96162E-01  0.00000E+00 -0.12967E+00  0.73480E-01  0.00000E+00 -0.13894E+00  0.79765E-01  0.00000E+00 -0.14433E+00
          0.75962E-01  0.00000E+00 -0.15031E+00  0.75494E-01  0.00000E+00 -0.15647E+00  0.72881E-01  0.00000E+00 -0.16158E+00  0.71743E-01  0.00000E+00 -0.16724E+00  0.68819E-01  0.00000E+00 -0.17376E+00  0.66993E-01  0.00000E+00 -0.17738E+00
          0.64306E-01  0.00000E+00 -0.18250E+00  0.61682E-01  0.00000E+00 -0.19159E+00  0.59946E-01  0.00000E+00 -0.19176E+00  0.57236E-01  0.00000E+00 -0.19597E+00  0.57892E-01  0.00000E+00 -0.20800E+00  0.56858E-01  0.00000E+00 -0.21182E+00
          0.17453E+00  0.00000E+00 -0.23125E-02  0.15611E+00  0.00000E+00 -0.91854E-02  0.13608E+00  0.00000E+00 -0.16665E-01  0.14910E+00  0.00000E+00 -0.27470E-01  0.13160E+00  0.00000E+00 -0.22929E-01  0.14477E+00  0.00000E+00 -0.37553E-01
          0.11868E+00  0.00000E+00 -0.37526E-01  0.13531E+00  0.00000E+00 -0.48181E-01  0.11024E+00  0.00000E+00 -0.51973E-01  0.13604E+00  0.00000E+00 -0.66053E-01  0.11011E+00  0.00000E+00 -0.78516E-01  0.15530E+00  0.00000E+00 -0.86612E-01
          0.90279E-01  0.00000E+00 -0.10668E+00  0.16021E+00  0.00000E+00 -0.10718E+00  0.82456E-01  0.00000E+00 -0.12945E+00  0.11630E+00  0.00000E+00 -0.12944E+00  0.93675E-01  0.00000E+00 -0.13873E+00  0.97171E-01  0.00000E+00 -0.14337E+00
          0.92034E-01  0.00000E+00 -0.14897E+00  0.91056E-01  0.00000E+00 -0.15435E+00  0.88030E-01  0.00000E+00 -0.15899E+00  0.86450E-01  0.00000E+00 -0.16433E+00  0.83576E-01  0.00000E+00 -0.17046E+00  0.81402E-01  0.00000E+00 -0.17367E+00
          0.79058E-01  0.00000E+00 -0.17897E+00  0.77331E-01  0.00000E+00 -0.18810E+00  0.75203E-01  0.00000E+00 -0.18788E+00  0.74135E-01  0.00000E+00 -0.19243E+00  0.72469E-01  0.00000E+00 -0.20503E+00  0.72764E-01  0.00000E+00 -0.20874E+00
          0.20092E+00  0.00000E+00 -0.42409E-02  0.18332E+00  0.00000E+00 -0.10442E-01  0.15937E+00  0.00000E+00 -0.12633E-01  0.21031E+00  0.00000E+00 -0.34876E-01  0.18845E+00  0.00000E+00 -0.36430E-01  0.19003E+00  0.00000E+00 -0.49368E-01
          0.15889E+00  0.00000E+00 -0.52462E-01  0.17273E+00  0.00000E+00 -0.55864E-01  0.15768E+00  0.00000E+00 -0.67538E-01  0.18707E+00  0.00000E+00 -0.73834E-01  0.14938E+00  0.00000E+00 -0.10053E+00  0.18686E+00  0.00000E+00 -0.89559E-01
          0.11267E+00  0.00000E+00 -0.11799E+00  0.17501E+00  0.00000E+00 -0.10635E+00  0.10946E+00  0.00000E+00 -0.12097E+00  0.12818E+00  0.00000E+00 -0.12199E+00  0.11036E+00  0.00000E+00 -0.12974E+00  0.11282E+00  0.00000E+00 -0.13277E+00
          0.10718E+00  0.00000E+00 -0.13817E+00  0.10722E+00  0.00000E+00 -0.14306E+00  0.10333E+00  0.00000E+00 -0.14732E+00  0.10269E+00  0.00000E+00 -0.15277E+00  0.99806E-01  0.00000E+00 -0.15906E+00  0.97688E-01  0.00000E+00 -0.16212E+00
          0.96346E-01  0.00000E+00 -0.16795E+00  0.94163E-01  0.00000E+00 -0.17827E+00  0.92717E-01  0.00000E+00 -0.17719E+00  0.92495E-01  0.00000E+00 -0.18206E+00  0.92642E-01  0.00000E+00 -0.19612E+00  0.92333E-01  0.00000E+00 -0.20000E+00
          0.23676E+00  0.00000E+00 -0.42215E-02  0.25437E+00  0.00000E+00 -0.18421E-01  0.22091E+00  0.00000E+00 -0.20644E-01  0.24411E+00  0.00000E+00 -0.26673E-01  0.22942E+00  0.00000E+00 -0.29559E-01  0.25132E+00  0.00000E+00 -0.43578E-01
          0.22126E+00  0.00000E+00 -0.61043E-01  0.21993E+00  0.00000E+00 -0.65326E-01  0.18728E+00  0.00000E+00 -0.95759E-01  0.19512E+00  0.00000E+00 -0.91239E-01  0.20006E+00  0.00000E+00 -0.80373E-01  0.13701E+00  0.00000E+00 -0.99147E-01
          0.21386E+00  0.00000E+00 -0.88477E-01  0.12098E+00  0.00000E+00 -0.11897E+00  0.15345E+00  0.00000E+00 -0.11188E+00  0.13219E+00  0.00000E+00 -0.11991E+00  0.12810E+00  0.00000E+00 -0.12431E+00  0.12658E+00  0.00000E+00 -0.12741E+00
          0.12234E+00  0.00000E+00 -0.13235E+00  0.12317E+00  0.00000E+00 -0.13664E+00  0.11956E+00  0.00000E+00 -0.14046E+00  0.12018E+00  0.00000E+00 -0.14574E+00  0.11825E+00  0.00000E+00 -0.15159E+00  0.11640E+00  0.00000E+00 -0.15433E+00
          0.11610E+00  0.00000E+00 -0.16007E+00  0.11514E+00  0.00000E+00 -0.17074E+00  0.11298E+00  0.00000E+00 -0.16917E+00  0.11372E+00  0.00000E+00 -0.17383E+00  0.11256E+00  0.00000E+00 -0.18904E+00  0.11252E+00  0.00000E+00 -0.19324E+00
          0.27964E+00  0.00000E+00 -0.29126E-02  0.29391E+00  0.00000E+00 -0.12677E-01  0.27025E+00  0.00000E+00 -0.25137E-01  0.30388E+00  0.00000E+00 -0.34911E-01  0.28871E+00  0.00000E+00 -0.38028E-01  0.26558E+00  0.00000E+00 -0.43431E-01
          0.25488E+00  0.00000E+00 -0.48311E-01  0.22225E+00  0.00000E+00 -0.58883E-01  0.21764E+00  0.00000E+00 -0.63260E-01  0.18745E+00  0.00000E+00 -0.88450E-01  0.21686E+00  0.00000E+00 -0.75009E-01  0.14856E+00  0.00000E+00 -0.10440E+00
          0.22306E+00  0.00000E+00 -0.97998E-01  0.14857E+00  0.00000E+00 -0.11776E+00  0.17055E+00  0.00000E+00 -0.10958E+00  0.15031E+00  0.00000E+00 -0.11907E+00  0.14300E+00  0.00000E+00 -0.12476E+00  0.14209E+00  0.00000E+00 -0.12874E+00
          0.13836E+00  0.00000E+00 -0.13414E+00  0.13943E+00  0.00000E+00 -0.13919E+00  0.13654E+00  0.00000E+00 -0.14355E+00  0.13782E+00  0.00000E+00 -0.14918E+00  0.13693E+00  0.00000E+00 -0.15521E+00  0.13547E+00  0.00000E+00 -0.15805E+00
          0.13651E+00  0.00000E+00 -0.16405E+00  0.13602E+00  0.00000E+00 -0.17446E+00  0.13405E+00  0.00000E+00 -0.17247E+00  0.13596E+00  0.00000E+00 -0.17779E+00  0.13539E+00  0.00000E+00 -0.19250E+00  0.13491E+00  0.00000E+00 -0.19580E+00
          0.31353E+00  0.00000E+00 -0.40704E-02  0.33516E+00  0.00000E+00 -0.15922E-01  0.34475E+00  0.00000E+00 -0.12592E-01  0.35376E+00  0.00000E+00 -0.20711E-01  0.32237E+00  0.00000E+00 -0.49942E-01  0.30806E+00  0.00000E+00 -0.43055E-01
          0.29043E+00  0.00000E+00 -0.56822E-01  0.27703E+00  0.00000E+00 -0.72379E-01  0.25754E+00  0.00000E+00 -0.74696E-01  0.24521E+00  0.00000E+00 -0.94694E-01  0.25872E+00  0.00000E+00 -0.83603E-01  0.18404E+00  0.00000E+00 -0.12600E+00
          0.20768E+00  0.00000E+00 -0.10288E+00  0.17780E+00  0.00000E+00 -0.10750E+00  0.17470E+00  0.00000E+00 -0.11031E+00  0.17430E+00  0.00000E+00 -0.11473E+00  0.16340E+00  0.00000E+00 -0.12057E+00  0.16349E+00  0.00000E+00 -0.12579E+00
          0.15871E+00  0.00000E+00 -0.13193E+00  0.15978E+00  0.00000E+00 -0.13732E+00  0.15669E+00  0.00000E+00 -0.14235E+00  0.15820E+00  0.00000E+00 -0.14847E+00  0.15723E+00  0.00000E+00 -0.15476E+00  0.15605E+00  0.00000E+00 -0.15806E+00
          0.15717E+00  0.00000E+00 -0.16421E+00  0.15668E+00  0.00000E+00 -0.17458E+00  0.15481E+00  0.00000E+00 -0.17298E+00  0.15693E+00  0.00000E+00 -0.17805E+00  0.15585E+00  0.00000E+00 -0.19249E+00  0.15568E+00  0.00000E+00 -0.19612E+00
          0.35285E+00  0.00000E+00 -0.22474E-02  0.36665E+00  0.00000E+00 -0.13589E-01  0.38977E+00  0.00000E+00 -0.11691E-01  0.36291E+00  0.00000E+00 -0.27219E-01  0.38820E+00  0.00000E+00 -0.43224E-01  0.37295E+00  0.00000E+00 -0.41300E-01
          0.33391E+00  0.00000E+00 -0.61420E-01  0.31883E+00  0.00000E+00 -0.65905E-01  0.29679E+00  0.00000E+00 -0.76609E-01  0.28183E+00  0.00000E+00 -0.84652E-01  0.25518E+00  0.00000E+00 -0.95074E-01  0.23495E+00  0.00000E+00 -0.81435E-01
          0.16644E+00  0.00000E+00 -0.10950E+00  0.23443E+00  0.00000E+00 -0.10752E+00  0.18478E+00  0.00000E+00 -0.12228E+00  0.19677E+00  0.00000E+00 -0.12454E+00  0.18321E+00  0.00000E+00 -0.12952E+00  0.18310E+00  0.00000E+00 -0.13417E+00
          0.17829E+00  0.00000E+00 -0.13931E+00  0.17959E+00  0.00000E+00 -0.14387E+00  0.17651E+00  0.00000E+00 -0.14845E+00  0.17799E+00  0.00000E+00 -0.15405E+00  0.17740E+00  0.00000E+00 -0.15963E+00  0.17619E+00  0.00000E+00 -0.16264E+00
          0.17767E+00  0.00000E+00 -0.16856E+00  0.17750E+00  0.00000E+00 -0.17821E+00  0.17544E+00  0.00000E+00 -0.17651E+00  0.17816E+00  0.00000E+00 -0.18179E+00  0.17712E+00  0.00000E+00 -0.19556E+00  0.17676E+00  0.00000E+00 -0.19875E+00
          0.38224E+00  0.00000E+00 -0.94778E-03  0.40247E+00  0.00000E+00 -0.14520E-01  0.42478E+00  0.00000E+00 -0.17380E-01  0.40697E+00  0.00000E+00 -0.28346E-01  0.41573E+00  0.00000E+00 -0.32083E-01  0.40334E+00  0.00000E+00 -0.35509E-01
          0.38155E+00  0.00000E+00 -0.51998E-01  0.37027E+00  0.00000E+00 -0.52686E-01  0.33589E+00  0.00000E+00 -0.76494E-01  0.31811E+00  0.00000E+00 -0.89057E-01  0.29015E+00  0.00000E+00 -0.92555E-01  0.26173E+00  0.00000E+00 -0.91780E-01
          0.20549E+00  0.00000E+00 -0.12841E+00  0.25024E+00  0.00000E+00 -0.11512E+00  0.20800E+00  0.00000E+00 -0.12497E+00  0.20547E+00  0.00000E+00 -0.12588E+00  0.20004E+00  0.00000E+00 -0.12976E+00  0.19852E+00  0.00000E+00 -0.13422E+00
          0.19445E+00  0.00000E+00 -0.13933E+00  0.19618E+00  0.00000E+00 -0.14379E+00  0.19322E+00  0.00000E+00 -0.14849E+00  0.19529E+00  0.00000E+00 -0.15397E+00  0.19503E+00  0.00000E+00 -0.15964E+00  0.19414E+00  0.00000E+00 -0.16273E+00
          0.19627E+00  0.00000E+00 -0.16860E+00  0.19639E+00  0.00000E+00 -0.17811E+00  0.19446E+00  0.00000E+00 -0.17671E+00  0.19787E+00  0.00000E+00 -0.18176E+00  0.19664E+00  0.00000E+00 -0.19514E+00  0.19646E+00  0.00000E+00 -0.19866E+00
          0.42474E+00  0.00000E+00 -0.90248E-03  0.44413E+00  0.00000E+00 -0.13301E-01  0.45843E+00  0.00000E+00 -0.14289E-01  0.43581E+00  0.00000E+00 -0.23922E-01  0.44605E+00  0.00000E+00 -0.29611E-01  0.43459E+00  0.00000E+00 -0.33286E-01
          0.41749E+00  0.00000E+00 -0.46757E-01  0.40252E+00  0.00000E+00 -0.50473E-01  0.37950E+00  0.00000E+00 -0.64586E-01  0.35761E+00  0.00000E+00 -0.72983E-01  0.31804E+00  0.00000E+00 -0.88160E-01  0.29623E+00  0.00000E+00 -0.86136E-01
          0.24797E+00  0.00000E+00 -0.12934E+00  0.26759E+00  0.00000E+00 -0.11173E+00  0.21438E+00  0.00000E+00 -0.12425E+00  0.21633E+00  0.00000E+00 -0.12549E+00  0.21476E+00  0.00000E+00 -0.12846E+00  0.21538E+00  0.00000E+00 -0.13288E+00
          0.21231E+00  0.00000E+00 -0.13856E+00  0.21493E+00  0.00000E+00 -0.14316E+00  0.21222E+00  0.00000E+00 -0.14818E+00  0.21460E+00  0.00000E+00 -0.15414E+00  0.21457E+00  0.00000E+00 -0.15997E+00  0.21387E+00  0.00000E+00 -0.16340E+00
          0.21612E+00  0.00000E+00 -0.16954E+00  0.21634E+00  0.00000E+00 -0.17889E+00  0.21430E+00  0.00000E+00 -0.17780E+00  0.21783E+00  0.00000E+00 -0.18303E+00  0.21647E+00  0.00000E+00 -0.19607E+00  0.21623E+00  0.00000E+00 -0.19942E+00
          0.46120E+00  0.00000E+00 -0.47678E-03  0.47822E+00  0.00000E+00 -0.12122E-01  0.49109E+00  0.00000E+00 -0.13186E-01  0.46857E+00  0.00000E+00 -0.22894E-01  0.47768E+00  0.00000E+00 -0.27789E-01  0.46539E+00  0.00000E+00 -0.32573E-01
          0.45188E+00  0.00000E+00 -0.44252E-01  0.43772E+00  0.00000E+00 -0.48847E-01  0.41667E+00  0.00000E+00 -0.59099E-01  0.39505E+00  0.00000E+00 -0.69794E-01  0.36606E+00  0.00000E+00 -0.76859E-01  0.33564E+00  0.00000E+00 -0.81376E-01
          0.29187E+00  0.00000E+00 -0.12066E+00  0.28122E+00  0.00000E+00 -0.10884E+00  0.22715E+00  0.00000E+00 -0.12206E+00  0.22397E+00  0.00000E+00 -0.12419E+00  0.23024E+00  0.00000E+00 -0.12769E+00  0.23155E+00  0.00000E+00 -0.13205E+00
          0.22982E+00  0.00000E+00 -0.13728E+00  0.23391E+00  0.00000E+00 -0.14192E+00  0.23107E+00  0.00000E+00 -0.14690E+00  0.23389E+00  0.00000E+00 -0.15280E+00  0.23394E+00  0.00000E+00 -0.15865E+00  0.23296E+00  0.00000E+00 -0.16210E+00
          0.23537E+00  0.00000E+00 -0.16822E+00  0.23553E+00  0.00000E+00 -0.17746E+00  0.23310E+00  0.00000E+00 -0.17644E+00  0.23698E+00  0.00000E+00 -0.18157E+00  0.23538E+00  0.00000E+00 -0.19432E+00  0.23518E+00  0.00000E+00 -0.19782E+00
          0.49519E+00  0.00000E+00 -0.56539E-03  0.51231E+00  0.00000E+00 -0.12216E-01  0.52292E+00  0.00000E+00 -0.12434E-01  0.49952E+00  0.00000E+00 -0.22352E-01  0.50759E+00  0.00000E+00 -0.27392E-01  0.49542E+00  0.00000E+00 -0.31829E-01
          0.48339E+00  0.00000E+00 -0.41631E-01  0.47020E+00  0.00000E+00 -0.47587E-01  0.45304E+00  0.00000E+00 -0.56726E-01  0.43188E+00  0.00000E+00 -0.64671E-01  0.40855E+00  0.00000E+00 -0.76296E-01  0.37470E+00  0.00000E+00 -0.83213E-01
          0.34845E+00  0.00000E+00 -0.94626E-01  0.30034E+00  0.00000E+00 -0.11079E+00  0.24952E+00  0.00000E+00 -0.11947E+00  0.24000E+00  0.00000E+00 -0.12226E+00  0.24536E+00  0.00000E+00 -0.12998E+00  0.24729E+00  0.00000E+00 -0.13276E+00
          0.24681E+00  0.00000E+00 -0.13721E+00  0.25258E+00  0.00000E+00 -0.14224E+00  0.25000E+00  0.00000E+00 -0.14681E+00  0.25346E+00  0.00000E+00 -0.15234E+00  0.25377E+00  0.00000E+00 -0.15811E+00  0.25264E+00  0.00000E+00 -0.16150E+00
          0.25521E+00  0.00000E+00 -0.16757E+00  0.25537E+00  0.00000E+00 -0.17662E+00  0.25237E+00  0.00000E+00 -0.17572E+00  0.25636E+00  0.00000E+00 -0.18074E+00  0.25449E+00  0.00000E+00 -0.19339E+00  0.25421E+00  0.00000E+00 -0.19692E+00
          0.53050E+00  0.00000E+00 -0.66864E-03  0.54721E+00  0.00000E+00 -0.12166E-01  0.55440E+00  0.00000E+00 -0.11314E-01  0.52920E+00  0.00000E+00 -0.21680E-01  0.53759E+00  0.00000E+00 -0.27722E-01  0.52473E+00  0.00000E+00 -0.31366E-01
          0.51340E+00  0.00000E+00 -0.40177E-01  0.50165E+00  0.00000E+00 -0.46712E-01  0.48720E+00  0.00000E+00 -0.54750E-01  0.46823E+00  0.00000E+00 -0.61903E-01  0.44629E+00  0.00000E+00 -0.71872E-01  0.41474E+00  0.00000E+00 -0.84635E-01
          0.38513E+00  0.00000E+00 -0.87551E-01  0.35008E+00  0.00000E+00 -0.95518E-01  0.28952E+00  0.00000E+00 -0.12491E+00  0.26116E+00  0.00000E+00 -0.12325E+00  0.26183E+00  0.00000E+00 -0.13292E+00  0.26345E+00  0.00000E+00 -0.13842E+00
          0.26294E+00  0.00000E+00 -0.14073E+00  0.26997E+00  0.00000E+00 -0.14538E+00  0.26797E+00  0.00000E+00 -0.15035E+00  0.27212E+00  0.00000E+00 -0.15508E+00  0.27285E+00  0.00000E+00 -0.16031E+00  0.27172E+00  0.00000E+00 -0.16365E+00
          0.27445E+00  0.00000E+00 -0.16939E+00  0.27459E+00  0.00000E+00 -0.17784E+00  0.27119E+00  0.00000E+00 -0.17687E+00  0.27522E+00  0.00000E+00 -0.18186E+00  0.27315E+00  0.00000E+00 -0.19391E+00  0.27276E+00  0.00000E+00 -0.19717E+00
          0.56655E+00  0.00000E+00 -0.66579E-03  0.58052E+00  0.00000E+00 -0.10989E-01  0.58858E+00  0.00000E+00 -0.10714E-01  0.55926E+00  0.00000E+00 -0.19480E-01  0.57269E+00  0.00000E+00 -0.30046E-01  0.55649E+00  0.00000E+00 -0.31707E-01
          0.54355E+00  0.00000E+00 -0.40490E-01  0.53295E+00  0.00000E+00 -0.46999E-01  0.52013E+00  0.00000E+00 -0.54052E-01  0.50319E+00  0.00000E+00 -0.60640E-01  0.48249E+00  0.00000E+00 -0.68391E-01  0.45466E+00  0.00000E+00 -0.81810E-01
          0.42395E+00  0.00000E+00 -0.87814E-01  0.38973E+00  0.00000E+00 -0.90181E-01  0.34530E+00  0.00000E+00 -0.11916E+00  0.29423E+00  0.00000E+00 -0.12878E+00  0.28102E+00  0.00000E+00 -0.13008E+00  0.27997E+00  0.00000E+00 -0.14084E+00
          0.27817E+00  0.00000E+00 -0.14409E+00  0.28629E+00  0.00000E+00 -0.14648E+00  0.28438E+00  0.00000E+00 -0.15202E+00  0.28942E+00  0.00000E+00 -0.15687E+00  0.29048E+00  0.00000E+00 -0.16130E+00  0.28933E+00  0.00000E+00 -0.16462E+00
          0.29247E+00  0.00000E+00 -0.17026E+00  0.29270E+00  0.00000E+00 -0.17819E+00  0.28888E+00  0.00000E+00 -0.17717E+00  0.29333E+00  0.00000E+00 -0.18210E+00  0.29109E+00  0.00000E+00 -0.19371E+00  0.29069E+00  0.00000E+00 -0.19689E+00
          0.59643E+00  0.00000E+00 -0.85070E-03  0.61194E+00  0.00000E+00 -0.11035E-01  0.62660E+00  0.00000E+00 -0.12017E-01  0.59232E+00  0.00000E+00 -0.15213E-01  0.61869E+00  0.00000E+00 -0.33642E-01  0.59416E+00  0.00000E+00 -0.33229E-01