<?xml version="1.0"?>
<VTKFile type="UnstructuredGrid" version="0.1" byte_order="LittleEndian" compressor="vtkZLibDataCompressor">
<UnstructuredGrid>
  <Piece NumberOfPoints="1800"        NumberOfCells="1"      >
    <Points>
      <DataArray type="Float32" NumberOfComponents="3" format="ascii" >
        0.47826E-01  0.00000E+00  0.24930E-02  0.32382E-01  0.00000E+00  0.35508E-02  0.16951E-01  0.00000E+00  0.38963E-02  0.23414E-01  0.00000E+00  0.97851E-02  0.70263E-02  0.00000E+00  0.79660E-02  0.11378E-01  0.00000E+00  0.14516E-01
        0.74392E-02  0.00000E+00  0.19735E-01  0.13450E-01  0.00000E+00  0.24482E-01  0.77177E-02  0.00000E+00  0.29578E-01  0.10262E-01  0.00000E+00  0.35906E-01  0.74933E-02  0.00000E+00  0.41912E-01  0.11298E-01  0.00000E+00  0.47328E-01
        0.79144E-02  0.00000E+00  0.53258E-01  0.12506E-01  0.00000E+00  0.58559E-01  0.94771E-02  0.00000E+00  0.63743E-01  0.13215E-01  0.00000E+00  0.68634E-01  0.12293E-01  0.00000E+00  0.73528E-01  0.13139E-01  0.00000E+00  0.78338E-01
        0.12926E-01  0.00000E+00  0.82837E-01  0.12823E-01  0.00000E+00  0.87348E-01  0.12430E-01  0.00000E+00  0.91890E-01  0.12107E-01  0.00000E+00  0.96609E-01  0.11828E-01  0.00000E+00  0.10138E+00  0.11366E-01  0.00000E+00  0.10603E+00
        0.10540E-01  0.00000E+00  0.11055E+00  0.99009E-02  0.00000E+00  0.11554E+00  0.10210E-01  0.00000E+00  0.12111E+00  0.96942E-02  0.00000E+00  0.12647E+00  0.73124E-02  0.00000E+00  0.13063E+00  0.75607E-02  0.00000E+00  0.13415E+00
        0.63561E-01  0.00000E+00  0.33223E-02  0.40007E-01  0.00000E+00  0.98907E-02  0.55619E-01  0.00000E+00  0.10132E-01  0.47761E-01  0.00000E+00  0.15739E-01  0.30193E-01  0.00000E+00  0.15395E-01  0.39716E-01  0.00000E+00  0.21135E-01
        0.23299E-01  0.00000E+00  0.21285E-01  0.35358E-01  0.00000E+00  0.27789E-01  0.23450E-01  0.00000E+00  0.30146E-01  0.34783E-01  0.00000E+00  0.35455E-01  0.22218E-01  0.00000E+00  0.38472E-01  0.33395E-01  0.00000E+00  0.43475E-01
        0.22539E-01  0.00000E+00  0.47496E-01  0.34225E-01  0.00000E+00  0.51668E-01  0.23683E-01  0.00000E+00  0.56597E-01  0.35547E-01  0.00000E+00  0.60228E-01  0.25457E-01  0.00000E+00  0.65503E-01  0.35821E-01  0.00000E+00  0.69325E-01
        0.28935E-01  0.00000E+00  0.74484E-01  0.34117E-01  0.00000E+00  0.79497E-01  0.31807E-01  0.00000E+00  0.84894E-01  0.31975E-01  0.00000E+00  0.90342E-01  0.30860E-01  0.00000E+00  0.95646E-01  0.30715E-01  0.00000E+00  0.10142E+00
        0.29177E-01  0.00000E+00  0.10691E+00  0.30258E-01  0.00000E+00  0.11187E+00  0.27092E-01  0.00000E+00  0.11763E+00  0.28399E-01  0.00000E+00  0.12465E+00  0.26087E-01  0.00000E+00  0.12799E+00  0.26519E-01  0.00000E+00  0.13211E+00
        0.81850E-01  0.00000E+00  0.32648E-02  0.71777E-01  0.00000E+00  0.90957E-02  0.90938E-01  0.00000E+00  0.92071E-02  0.80054E-01  0.00000E+00  0.14416E-01  0.63223E-01  0.00000E+00  0.16530E-01  0.72118E-01  0.00000E+00  0.21185E-01
        0.54076E-01  0.00000E+00  0.23313E-01  0.64054E-01  0.00000E+00  0.27287E-01  0.47791E-01  0.00000E+00  0.30007E-01  0.59370E-01  0.00000E+00  0.34465E-01  0.46452E-01  0.00000E+00  0.38252E-01  0.58128E-01  0.00000E+00  0.42491E-01
        0.45640E-01  0.00000E+00  0.46509E-01  0.57609E-01  0.00000E+00  0.50691E-01  0.46116E-01  0.00000E+00  0.55062E-01  0.58022E-01  0.00000E+00  0.59326E-01  0.46844E-01  0.00000E+00  0.64024E-01  0.57759E-01  0.00000E+00  0.68424E-01
        0.48598E-01  0.00000E+00  0.72791E-01  0.55234E-01  0.00000E+00  0.77917E-01  0.50368E-01  0.00000E+00  0.82998E-01  0.52097E-01  0.00000E+00  0.88781E-01  0.49344E-01  0.00000E+00  0.93815E-01  0.50011E-01  0.00000E+00  0.99749E-01
        0.48055E-01  0.00000E+00  0.10520E+00  0.47756E-01  0.00000E+00  0.11037E+00  0.46520E-01  0.00000E+00  0.11649E+00  0.46130E-01  0.00000E+00  0.12329E+00  0.44532E-01  0.00000E+00  0.12689E+00  0.44724E-01  0.00000E+00  0.13123E+00
        0.12005E+00  0.00000E+00  0.32939E-02  0.10078E+00  0.00000E+00  0.54982E-02  0.11121E+00  0.00000E+00  0.92459E-02  0.10520E+00  0.00000E+00  0.16168E-01  0.92284E-01  0.00000E+00  0.17939E-01  0.99792E-01  0.00000E+00  0.23797E-01
        0.83361E-01  0.00000E+00  0.23892E-01  0.92058E-01  0.00000E+00  0.29952E-01  0.75762E-01  0.00000E+00  0.30721E-01  0.85503E-01  0.00000E+00  0.36197E-01  0.71015E-01  0.00000E+00  0.38157E-01  0.82701E-01  0.00000E+00  0.43652E-01
        0.69939E-01  0.00000E+00  0.46246E-01  0.81625E-01  0.00000E+00  0.51605E-01  0.69140E-01  0.00000E+00  0.54604E-01  0.80951E-01  0.00000E+00  0.60045E-01  0.69004E-01  0.00000E+00  0.63365E-01  0.79503E-01  0.00000E+00  0.68733E-01
        0.69654E-01  0.00000E+00  0.72392E-01  0.76426E-01  0.00000E+00  0.78216E-01  0.69558E-01  0.00000E+00  0.82361E-01  0.72580E-01  0.00000E+00  0.88324E-01  0.68484E-01  0.00000E+00  0.93005E-01  0.68881E-01  0.00000E+00  0.98948E-01
        0.67374E-01  0.00000E+00  0.10444E+00  0.65994E-01  0.00000E+00  0.10934E+00  0.65451E-01  0.00000E+00  0.11549E+00  0.64316E-01  0.00000E+00  0.12228E+00  0.64690E-01  0.00000E+00  0.12580E+00  0.64078E-01  0.00000E+00  0.13001E+00
        0.14999E+00  0.00000E+00  0.33178E-02  0.13488E+00  0.00000E+00  0.58953E-02  0.12460E+00  0.00000E+00  0.11777E-01  0.13548E+00  0.00000E+00  0.15790E-01  0.11879E+00  0.00000E+00  0.18989E-01  0.12983E+00  0.00000E+00  0.23021E-01
        0.11156E+00  0.00000E+00  0.24702E-01  0.12164E+00  0.00000E+00  0.29246E-01  0.10531E+00  0.00000E+00  0.32488E-01  0.11513E+00  0.00000E+00  0.36895E-01  0.98251E-01  0.00000E+00  0.38987E-01  0.10886E+00  0.00000E+00  0.43915E-01
        0.94932E-01  0.00000E+00  0.46450E-01  0.10637E+00  0.00000E+00  0.51836E-01  0.93344E-01  0.00000E+00  0.54317E-01  0.10425E+00  0.00000E+00  0.60192E-01  0.91912E-01  0.00000E+00  0.62782E-01  0.10122E+00  0.00000E+00  0.68840E-01
        0.90819E-01  0.00000E+00  0.71972E-01  0.96736E-01  0.00000E+00  0.78405E-01  0.89596E-01  0.00000E+00  0.82317E-01  0.91986E-01  0.00000E+00  0.88468E-01  0.88329E-01  0.00000E+00  0.93219E-01  0.87913E-01  0.00000E+00  0.99107E-01
        0.86405E-01  0.00000E+00  0.10444E+00  0.85469E-01  0.00000E+00  0.10938E+00  0.84239E-01  0.00000E+00  0.11539E+00  0.83806E-01  0.00000E+00  0.12209E+00  0.82959E-01  0.00000E+00  0.12544E+00  0.83069E-01  0.00000E+00  0.12971E+00
        0.17068E+00  0.00000E+00  0.31882E-02  0.16043E+00  0.00000E+00  0.80676E-02  0.14534E+00  0.00000E+00  0.11622E-01  0.17263E+00  0.00000E+00  0.13081E-01  0.15456E+00  0.00000E+00  0.16352E-01  0.16489E+00  0.00000E+00  0.18901E-01
        0.14462E+00  0.00000E+00  0.21809E-01  0.14828E+00  0.00000E+00  0.29475E-01  0.13528E+00  0.00000E+00  0.29897E-01  0.14117E+00  0.00000E+00  0.36306E-01  0.12692E+00  0.00000E+00  0.37548E-01  0.13230E+00  0.00000E+00  0.44558E-01
        0.12046E+00  0.00000E+00  0.46293E-01  0.12909E+00  0.00000E+00  0.53740E-01  0.11752E+00  0.00000E+00  0.54856E-01  0.12692E+00  0.00000E+00  0.62204E-01  0.11502E+00  0.00000E+00  0.63344E-01  0.12222E+00  0.00000E+00  0.70296E-01
        0.11125E+00  0.00000E+00  0.72716E-01  0.11657E+00  0.00000E+00  0.79737E-01  0.10857E+00  0.00000E+00  0.83139E-01  0.11208E+00  0.00000E+00  0.89267E-01  0.10791E+00  0.00000E+00  0.93883E-01  0.10705E+00  0.00000E+00  0.99781E-01
        0.10642E+00  0.00000E+00  0.10504E+00  0.10455E+00  0.00000E+00  0.10972E+00  0.10362E+00  0.00000E+00  0.11585E+00  0.10316E+00  0.00000E+00  0.12250E+00  0.10302E+00  0.00000E+00  0.12561E+00  0.10272E+00  0.00000E+00  0.12985E+00
        0.19466E+00  0.00000E+00  0.30871E-02  0.20777E+00  0.00000E+00  0.69092E-02  0.18280E+00  0.00000E+00  0.73972E-02  0.20072E+00  0.00000E+00  0.12867E-01  0.18787E+00  0.00000E+00  0.14501E-01  0.19514E+00  0.00000E+00  0.19962E-01
        0.18043E+00  0.00000E+00  0.21135E-01  0.17220E+00  0.00000E+00  0.25501E-01  0.15870E+00  0.00000E+00  0.25951E-01  0.15905E+00  0.00000E+00  0.34245E-01  0.15513E+00  0.00000E+00  0.41879E-01  0.14533E+00  0.00000E+00  0.43922E-01
        0.15520E+00  0.00000E+00  0.51033E-01  0.14100E+00  0.00000E+00  0.51531E-01  0.15110E+00  0.00000E+00  0.59125E-01  0.14038E+00  0.00000E+00  0.59747E-01  0.14025E+00  0.00000E+00  0.66673E-01  0.14011E+00  0.00000E+00  0.73581E-01
        0.13051E+00  0.00000E+00  0.75395E-01  0.13684E+00  0.00000E+00  0.82853E-01  0.12775E+00  0.00000E+00  0.85490E-01  0.13238E+00  0.00000E+00  0.91502E-01  0.12789E+00  0.00000E+00  0.95937E-01  0.12625E+00  0.00000E+00  0.10180E+00
        0.12617E+00  0.00000E+00  0.10686E+00  0.12475E+00  0.00000E+00  0.11167E+00  0.12321E+00  0.00000E+00  0.11770E+00  0.12352E+00  0.00000E+00  0.12434E+00  0.12282E+00  0.00000E+00  0.12717E+00  0.12276E+00  0.00000E+00  0.13137E+00
        0.21976E+00  0.00000E+00  0.33161E-02  0.23127E+00  0.00000E+00  0.79269E-02  0.21963E+00  0.00000E+00  0.12624E-01  0.24174E+00  0.00000E+00  0.12896E-01  0.22890E+00  0.00000E+00  0.17345E-01  0.21239E+00  0.00000E+00  0.18023E-01
        0.20650E+00  0.00000E+00  0.24166E-01  0.19172E+00  0.00000E+00  0.27964E-01  0.18319E+00  0.00000E+00  0.31646E-01  0.17149E+00  0.00000E+00  0.33946E-01  0.17921E+00  0.00000E+00  0.40874E-01  0.16681E+00  0.00000E+00  0.42354E-01
        0.17736E+00  0.00000E+00  0.49553E-01  0.16592E+00  0.00000E+00  0.51398E-01  0.17429E+00  0.00000E+00  0.58718E-01  0.16459E+00  0.00000E+00  0.60608E-01  0.15817E+00  0.00000E+00  0.65814E-01  0.16164E+00  0.00000E+00  0.73009E-01
        0.15183E+00  0.00000E+00  0.74908E-01  0.15769E+00  0.00000E+00  0.81897E-01  0.14895E+00  0.00000E+00  0.85155E-01  0.15315E+00  0.00000E+00  0.91154E-01  0.14941E+00  0.00000E+00  0.96001E-01  0.14653E+00  0.00000E+00  0.10149E+00
        0.14721E+00  0.00000E+00  0.10649E+00  0.14540E+00  0.00000E+00  0.11135E+00  0.14368E+00  0.00000E+00  0.11731E+00  0.14446E+00  0.00000E+00  0.12388E+00  0.14384E+00  0.00000E+00  0.12667E+00  0.14356E+00  0.00000E+00  0.13087E+00
[...]
<PointData>
      <DataArray type="Float32" Name="Velocity vectors"  NumberOfComponents="3"  format="ascii" >
          0.88028E-01  0.00000E+00  0.37190E-03  0.62308E-01  0.00000E+00 -0.79391E-02  0.44618E-01  0.00000E+00 -0.24593E-02  0.43443E-01  0.00000E+00 -0.22662E-02  0.54231E-02  0.00000E+00 -0.26780E-01  0.49140E-01  0.00000E+00 -0.32085E-01
         -0.18304E-01  0.00000E+00 -0.44743E-01  0.39034E-01  0.00000E+00 -0.53727E-01 -0.77269E-02  0.00000E+00 -0.65905E-01  0.26418E-01  0.00000E+00 -0.72717E-01 -0.10768E-01  0.00000E+00 -0.78873E-01  0.23558E-01  0.00000E+00 -0.84386E-01
         -0.19567E-01  0.00000E+00 -0.85443E-01  0.25358E-01  0.00000E+00 -0.93316E-01 -0.44359E-01  0.00000E+00 -0.91254E-01  0.24982E-01  0.00000E+00 -0.10479E+00 -0.74664E-02  0.00000E+00 -0.98633E-01  0.15782E-01  0.00000E+00 -0.94634E-01
          0.11912E-01  0.00000E+00 -0.97178E-01  0.14421E-01  0.00000E+00 -0.99582E-01  0.12913E-01  0.00000E+00 -0.10119E+00  0.13073E-01  0.00000E+00 -0.10134E+00  0.13961E-01  0.00000E+00 -0.10320E+00  0.12192E-01  0.00000E+00 -0.10759E+00
          0.90498E-02  0.00000E+00 -0.11148E+00  0.97721E-02  0.00000E+00 -0.11016E+00  0.13047E-01  0.00000E+00 -0.11144E+00  0.68908E-02  0.00000E+00 -0.11916E+00  0.42308E-02  0.00000E+00 -0.12529E+00  0.42345E-02  0.00000E+00 -0.12737E+00
          0.10864E+00  0.00000E+00 -0.25367E-02  0.77590E-01  0.00000E+00 -0.12576E-01  0.95459E-01  0.00000E+00 -0.97290E-02  0.89184E-01  0.00000E+00 -0.15349E-01  0.78528E-01  0.00000E+00 -0.16501E-01  0.70149E-01  0.00000E+00 -0.24047E-01
          0.24163E-01  0.00000E+00 -0.39914E-01  0.36060E-01  0.00000E+00 -0.36646E-01  0.27669E-01  0.00000E+00 -0.43346E-01  0.44389E-01  0.00000E+00 -0.44168E-01  0.14867E-01  0.00000E+00 -0.58570E-01  0.31993E-01  0.00000E+00 -0.57131E-01
          0.12410E-01  0.00000E+00 -0.64666E-01  0.30105E-01  0.00000E+00 -0.64029E-01  0.10041E-01  0.00000E+00 -0.76537E-01  0.28592E-01  0.00000E+00 -0.82454E-01 -0.57178E-02  0.00000E+00 -0.80612E-01  0.48537E-01  0.00000E+00 -0.90995E-01
         -0.26310E-01  0.00000E+00 -0.10100E+00  0.55071E-01  0.00000E+00 -0.12536E+00  0.61002E-02  0.00000E+00 -0.11948E+00  0.28683E-01  0.00000E+00 -0.11907E+00  0.17775E-01  0.00000E+00 -0.12611E+00  0.29509E-01  0.00000E+00 -0.12472E+00
          0.14849E-01  0.00000E+00 -0.12938E+00  0.36971E-01  0.00000E+00 -0.12945E+00  0.14618E-01  0.00000E+00 -0.13501E+00  0.27213E-01  0.00000E+00 -0.13571E+00  0.21559E-01  0.00000E+00 -0.14290E+00  0.23795E-01  0.00000E+00 -0.14351E+00
          0.12835E+00  0.00000E+00 -0.10370E-02  0.11881E+00  0.00000E+00 -0.62590E-02  0.15459E+00  0.00000E+00 -0.17817E-01  0.14142E+00  0.00000E+00 -0.20471E-01  0.10870E+00  0.00000E+00 -0.21182E-01  0.11994E+00  0.00000E+00 -0.28843E-01
          0.95818E-01  0.00000E+00 -0.23913E-01  0.10138E+00  0.00000E+00 -0.34064E-01  0.55417E-01  0.00000E+00 -0.46342E-01  0.62862E-01  0.00000E+00 -0.47944E-01  0.48208E-01  0.00000E+00 -0.52256E-01  0.59322E-01  0.00000E+00 -0.55225E-01
          0.40851E-01  0.00000E+00 -0.60754E-01  0.55721E-01  0.00000E+00 -0.65219E-01  0.43215E-01  0.00000E+00 -0.69102E-01  0.59058E-01  0.00000E+00 -0.79025E-01  0.33562E-01  0.00000E+00 -0.80051E-01  0.75165E-01  0.00000E+00 -0.86866E-01
          0.13679E-01  0.00000E+00 -0.94018E-01  0.90170E-01  0.00000E+00 -0.10874E+00  0.10799E-01  0.00000E+00 -0.12534E+00  0.69559E-01  0.00000E+00 -0.11730E+00  0.22386E-01  0.00000E+00 -0.13307E+00  0.52969E-01  0.00000E+00 -0.13297E+00
          0.30801E-01  0.00000E+00 -0.13894E+00  0.38667E-01  0.00000E+00 -0.13934E+00  0.33070E-01  0.00000E+00 -0.14007E+00  0.35235E-01  0.00000E+00 -0.14220E+00  0.29892E-01  0.00000E+00 -0.14640E+00  0.32627E-01  0.00000E+00 -0.14724E+00
          0.19208E+00  0.00000E+00 -0.13027E-02  0.16768E+00  0.00000E+00 -0.24291E-02  0.18477E+00  0.00000E+00 -0.97918E-02  0.15008E+00  0.00000E+00 -0.22669E-01  0.14347E+00  0.00000E+00 -0.14871E-01  0.15006E+00  0.00000E+00 -0.21504E-01
          0.12965E+00  0.00000E+00 -0.27192E-01  0.13344E+00  0.00000E+00 -0.31965E-01  0.10759E+00  0.00000E+00 -0.39805E-01  0.10542E+00  0.00000E+00 -0.46156E-01  0.73915E-01  0.00000E+00 -0.55848E-01  0.86799E-01  0.00000E+00 -0.57433E-01
          0.72598E-01  0.00000E+00 -0.64326E-01  0.86238E-01  0.00000E+00 -0.68019E-01  0.71749E-01  0.00000E+00 -0.75868E-01  0.87867E-01  0.00000E+00 -0.78401E-01  0.65210E-01  0.00000E+00 -0.88110E-01  0.98154E-01  0.00000E+00 -0.84165E-01
          0.46710E-01  0.00000E+00 -0.97313E-01  0.11432E+00  0.00000E+00 -0.10038E+00  0.33661E-01  0.00000E+00 -0.12402E+00  0.10525E+00  0.00000E+00 -0.11938E+00  0.40837E-01  0.00000E+00 -0.14246E+00  0.67196E-01  0.00000E+00 -0.13727E+00
          0.52948E-01  0.00000E+00 -0.14378E+00  0.44146E-01  0.00000E+00 -0.14713E+00  0.45982E-01  0.00000E+00 -0.14663E+00  0.42124E-01  0.00000E+00 -0.14923E+00  0.45214E-01  0.00000E+00 -0.15338E+00  0.43239E-01  0.00000E+00 -0.15448E+00
          0.24216E+00  0.00000E+00 -0.13870E-02  0.21383E+00  0.00000E+00 -0.71072E-02  0.20649E+00  0.00000E+00 -0.10200E-01  0.20981E+00  0.00000E+00 -0.11627E-01  0.16542E+00  0.00000E+00 -0.29343E-01  0.17685E+00  0.00000E+00 -0.26590E-01
          0.16032E+00  0.00000E+00 -0.31196E-01  0.17199E+00  0.00000E+00 -0.41202E-01  0.15182E+00  0.00000E+00 -0.34711E-01  0.16340E+00  0.00000E+00 -0.48869E-01  0.12550E+00  0.00000E+00 -0.48903E-01  0.14051E+00  0.00000E+00 -0.60316E-01
          0.10672E+00  0.00000E+00 -0.65202E-01  0.12962E+00  0.00000E+00 -0.74570E-01  0.10617E+00  0.00000E+00 -0.80053E-01  0.12612E+00  0.00000E+00 -0.88246E-01  0.97183E-01  0.00000E+00 -0.98832E-01  0.12571E+00  0.00000E+00 -0.96543E-01
          0.76625E-01  0.00000E+00 -0.11154E+00  0.14007E+00  0.00000E+00 -0.11012E+00  0.60174E-01  0.00000E+00 -0.13449E+00  0.12585E+00  0.00000E+00 -0.12413E+00  0.70377E-01  0.00000E+00 -0.14600E+00  0.82111E-01  0.00000E+00 -0.13764E+00
          0.67154E-01  0.00000E+00 -0.14773E+00  0.62776E-01  0.00000E+00 -0.14889E+00  0.55393E-01  0.00000E+00 -0.14960E+00  0.57062E-01  0.00000E+00 -0.15197E+00  0.54372E-01  0.00000E+00 -0.15701E+00  0.56150E-01  0.00000E+00 -0.15815E+00
          0.25655E+00  0.00000E+00 -0.44949E-03  0.24684E+00  0.00000E+00 -0.55188E-02  0.21473E+00  0.00000E+00 -0.13487E-01  0.27419E+00  0.00000E+00 -0.10912E-01  0.21965E+00  0.00000E+00 -0.17738E-01  0.24186E+00  0.00000E+00 -0.33746E-01
          0.20430E+00  0.00000E+00 -0.17398E-01  0.22874E+00  0.00000E+00 -0.26233E-01  0.19873E+00  0.00000E+00 -0.39653E-01  0.20209E+00  0.00000E+00 -0.50403E-01  0.18272E+00  0.00000E+00 -0.55158E-01  0.18844E+00  0.00000E+00 -0.63274E-01
          0.16522E+00  0.00000E+00 -0.70731E-01  0.16616E+00  0.00000E+00 -0.78396E-01  0.14890E+00  0.00000E+00 -0.87587E-01  0.16912E+00  0.00000E+00 -0.87547E-01  0.13718E+00  0.00000E+00 -0.10702E+00  0.15930E+00  0.00000E+00 -0.10545E+00
          0.11242E+00  0.00000E+00 -0.12671E+00  0.15986E+00  0.00000E+00 -0.11706E+00  0.82369E-01  0.00000E+00 -0.14531E+00  0.14749E+00  0.00000E+00 -0.13802E+00  0.96442E-01  0.00000E+00 -0.16031E+00  0.97109E-01  0.00000E+00 -0.15049E+00
          0.95969E-01  0.00000E+00 -0.15945E+00  0.76491E-01  0.00000E+00 -0.16541E+00  0.72100E-01  0.00000E+00 -0.16416E+00  0.70745E-01  0.00000E+00 -0.16658E+00  0.70640E-01  0.00000E+00 -0.17144E+00  0.69737E-01  0.00000E+00 -0.17189E+00
          0.29759E+00  0.00000E+00  0.55504E-03  0.33314E+00  0.00000E+00 -0.75876E-02  0.27410E+00  0.00000E+00 -0.11418E-01  0.30399E+00  0.00000E+00 -0.25180E-01  0.29728E+00  0.00000E+00 -0.21561E-01  0.29815E+00  0.00000E+00 -0.21029E-01
          0.27504E+00  0.00000E+00 -0.29281E-01  0.24635E+00  0.00000E+00 -0.42208E-01  0.22599E+00  0.00000E+00 -0.45359E-01  0.24145E+00  0.00000E+00 -0.46500E-01  0.21863E+00  0.00000E+00 -0.49664E-01  0.21945E+00  0.00000E+00 -0.59122E-01
          0.21644E+00  0.00000E+00 -0.58676E-01  0.18542E+00  0.00000E+00 -0.79250E-01  0.19251E+00  0.00000E+00 -0.72093E-01  0.17131E+00  0.00000E+00 -0.92959E-01  0.17994E+00  0.00000E+00 -0.92370E-01  0.18964E+00  0.00000E+00 -0.77630E-01
          0.13986E+00  0.00000E+00 -0.12534E+00  0.17804E+00  0.00000E+00 -0.10285E+00  0.10477E+00  0.00000E+00 -0.14579E+00  0.17316E+00  0.00000E+00 -0.13996E+00  0.12412E+00  0.00000E+00 -0.16180E+00  0.10662E+00  0.00000E+00 -0.15485E+00
          0.11315E+00  0.00000E+00 -0.16653E+00  0.95305E-01  0.00000E+00 -0.16535E+00  0.82219E-01  0.00000E+00 -0.16730E+00  0.88440E-01  0.00000E+00 -0.17139E+00  0.84658E-01  0.00000E+00 -0.17388E+00  0.85634E-01  0.00000E+00 -0.17464E+00
          0.33805E+00  0.00000E+00  0.21288E-04  0.34547E+00  0.00000E+00 -0.70460E-02  0.33431E+00  0.00000E+00 -0.73514E-05  0.35242E+00  0.00000E+00 -0.68324E-02  0.33996E+00  0.00000E+00 -0.17089E-01  0.31024E+00  0.00000E+00 -0.20890E-01
          0.29830E+00  0.00000E+00 -0.29344E-01  0.27020E+00  0.00000E+00 -0.27604E-01  0.24791E+00  0.00000E+00 -0.52501E-01  0.23734E+00  0.00000E+00 -0.46429E-01  0.25456E+00  0.00000E+00 -0.57104E-01  0.23739E+00  0.00000E+00 -0.56449E-01
          0.24530E+00  0.00000E+00 -0.63779E-01  0.22551E+00  0.00000E+00 -0.69050E-01  0.24177E+00  0.00000E+00 -0.80712E-01  0.22803E+00  0.00000E+00 -0.79350E-01  0.18523E+00  0.00000E+00 -0.10078E+00  0.22982E+00  0.00000E+00 -0.92676E-01
          0.17501E+00  0.00000E+00 -0.12498E+00  0.21410E+00  0.00000E+00 -0.10969E+00  0.14892E+00  0.00000E+00 -0.14050E+00  0.21057E+00  0.00000E+00 -0.13831E+00  0.16603E+00  0.00000E+00 -0.15190E+00  0.11966E+00  0.00000E+00 -0.15615E+00
          0.13707E+00  0.00000E+00 -0.16732E+00  0.11190E+00  0.00000E+00 -0.16671E+00  0.97725E-01  0.00000E+00 -0.16868E+00  0.10804E+00  0.00000E+00 -0.17412E+00  0.10393E+00  0.00000E+00 -0.17570E+00  0.10399E+00  0.00000E+00 -0.17713E+00
          0.35343E+00  0.00000E+00  0.41295E-03  0.36454E+00  0.00000E+00 -0.90011E-02  0.36266E+00  0.00000E+00 -0.60684E-02  0.39448E+00  0.00000E+00 -0.28599E-01  0.35493E+00  0.00000E+00 -0.13319E-01  0.35352E+00  0.00000E+00 -0.99016E-02
          0.33462E+00  0.00000E+00 -0.24390E-01  0.31992E+00  0.00000E+00 -0.24334E-01  0.29283E+00  0.00000E+00 -0.36684E-01  0.27613E+00  0.00000E+00 -0.42076E-01  0.29743E+00  0.00000E+00 -0.47734E-01  0.27142E+00  0.00000E+00 -0.54116E-01
          0.28393E+00  0.00000E+00 -0.57639E-01  0.25112E+00  0.00000E+00 -0.85700E-01  0.26891E+00  0.00000E+00 -0.87828E-01  0.26349E+00  0.00000E+00 -0.81944E-01  0.23984E+00  0.00000E+00 -0.95691E-01  0.25073E+00  0.00000E+00 -0.93875E-01
          0.21136E+00  0.00000E+00 -0.13012E+00  0.24403E+00  0.00000E+00 -0.10558E+00  0.18006E+00  0.00000E+00 -0.14212E+00  0.24174E+00  0.00000E+00 -0.13877E+00  0.19169E+00  0.00000E+00 -0.15616E+00  0.14891E+00  0.00000E+00 -0.15482E+00
          0.16536E+00  0.00000E+00 -0.16598E+00  0.13833E+00  0.00000E+00 -0.16601E+00  0.12135E+00  0.00000E+00 -0.16906E+00  0.13189E+00  0.00000E+00 -0.17496E+00  0.12512E+00  0.00000E+00 -0.17631E+00  0.12560E+00  0.00000E+00 -0.17814E+00
          0.38332E+00  0.00000E+00 -0.31928E-03  0.39161E+00  0.00000E+00 -0.46805E-02  0.45083E+00  0.00000E+00 -0.20017E-01  0.41845E+00  0.00000E+00 -0.19857E-01  0.42467E+00  0.00000E+00 -0.30477E-01  0.40355E+00  0.00000E+00 -0.27849E-01
          0.37687E+00  0.00000E+00 -0.34793E-01  0.36637E+00  0.00000E+00 -0.15182E-01  0.34236E+00  0.00000E+00 -0.28936E-01  0.33231E+00  0.00000E+00 -0.31163E-01  0.31728E+00  0.00000E+00 -0.56904E-01  0.30762E+00  0.00000E+00 -0.59922E-01
          0.30329E+00  0.00000E+00 -0.57633E-01  0.30536E+00  0.00000E+00 -0.64057E-01  0.26809E+00  0.00000E+00 -0.78807E-01  0.29230E+00  0.00000E+00 -0.72927E-01  0.25945E+00  0.00000E+00 -0.89576E-01  0.28421E+00  0.00000E+00 -0.87638E-01
          0.25263E+00  0.00000E+00 -0.10863E+00  0.27699E+00  0.00000E+00 -0.92208E-01  0.21148E+00  0.00000E+00 -0.12773E+00  0.26759E+00  0.00000E+00 -0.12391E+00  0.21592E+00  0.00000E+00 -0.14279E+00  0.16668E+00  0.00000E+00 -0.14309E+00
          0.18564E+00  0.00000E+00 -0.15478E+00  0.16204E+00  0.00000E+00 -0.15257E+00  0.14073E+00  0.00000E+00 -0.15655E+00  0.15349E+00  0.00000E+00 -0.16305E+00  0.14542E+00  0.00000E+00 -0.16401E+00  0.14567E+00  0.00000E+00 -0.16642E+00
          0.41407E+00  0.00000E+00  0.10518E-03  0.46549E+00  0.00000E+00 -0.57863E-02  0.45675E+00  0.00000E+00 -0.25368E-02  0.44001E+00  0.00000E+00 -0.54405E-02  0.43806E+00  0.00000E+00 -0.15428E-01  0.41698E+00  0.00000E+00 -0.14018E-01
          0.41286E+00  0.00000E+00 -0.26803E-01  0.41125E+00  0.00000E+00 -0.35209E-01  0.39229E+00  0.00000E+00 -0.47821E-01  0.38452E+00  0.00000E+00 -0.42854E-01  0.36266E+00  0.00000E+00 -0.39846E-01  0.34365E+00  0.00000E+00 -0.47079E-01
          0.32381E+00  0.00000E+00 -0.47404E-01  0.33825E+00  0.00000E+00 -0.55356E-01  0.31176E+00  0.00000E+00 -0.71957E-01  0.33934E+00  0.00000E+00 -0.69088E-01  0.29148E+00  0.00000E+00 -0.94427E-01  0.31548E+00  0.00000E+00 -0.81880E-01
          0.28278E+00  0.00000E+00 -0.11210E+00  0.30215E+00  0.00000E+00 -0.93377E-01  0.24337E+00  0.00000E+00 -0.12716E+00  0.29543E+00  0.00000E+00 -0.12079E+00  0.24550E+00  0.00000E+00 -0.13960E+00  0.19154E+00  0.00000E+00 -0.14174E+00
          0.21113E+00  0.00000E+00 -0.15240E+00  0.18479E+00  0.00000E+00 -0.15150E+00  0.16253E+00  0.00000E+00 -0.15551E+00  0.17550E+00  0.00000E+00 -0.16219E+00  0.16618E+00  0.00000E+00 -0.16333E+00  0.16656E+00  0.00000E+00 -0.16551E+00
          0.48041E+00  0.00000E+00 -0.69235E-03  0.50704E+00  0.00000E+00 -0.62126E-02  0.49265E+00  0.00000E+00 -0.33875E-02  0.46080E+00  0.00000E+00 -0.25288E-01  0.46106E+00  0.00000E+00 -0.23889E-01  0.45433E+00  0.00000E+00 -0.18832E-01
          0.45028E+00  0.00000E+00 -0.20973E-01  0.43800E+00  0.00000E+00 -0.25902E-01  0.43004E+00  0.00000E+00 -0.31844E-01  0.41990E+00  0.00000E+00 -0.38820E-01  0.40836E+00  0.00000E+00 -0.52747E-01  0.38977E+00  0.00000E+00 -0.66119E-01
          0.37543E+00  0.00000E+00 -0.52758E-01  0.37200E+00  0.00000E+00 -0.61488E-01  0.35769E+00  0.00000E+00 -0.75602E-01  0.38150E+00  0.00000E+00 -0.68854E-01  0.32823E+00  0.00000E+00 -0.10174E+00  0.34421E+00  0.00000E+00 -0.84043E-01
          0.30948E+00  0.00000E+00 -0.11325E+00  0.33097E+00  0.00000E+00 -0.96287E-01  0.27499E+00  0.00000E+00 -0.12597E+00  0.32152E+00  0.00000E+00 -0.11782E+00  0.27449E+00  0.00000E+00 -0.13385E+00  0.21561E+00  0.00000E+00 -0.14204E+00
          0.23408E+00  0.00000E+00 -0.14783E+00  0.20802E+00  0.00000E+00 -0.14742E+00  0.18305E+00  0.00000E+00 -0.15363E+00  0.19644E+00  0.00000E+00 -0.15957E+00  0.18582E+00  0.00000E+00 -0.16076E+00  0.18601E+00  0.00000E+00 -0.16340E+00
          0.52664E+00  0.00000E+00 -0.90667E-03  0.54590E+00  0.00000E+00 -0.48393E-02  0.52967E+00  0.00000E+00 -0.45659E-02  0.50027E+00  0.00000E+00 -0.23099E-01  0.49925E+00  0.00000E+00 -0.20566E-01  0.48758E+00  0.00000E+00 -0.19398E-01
          0.48153E+00  0.00000E+00 -0.29784E-01  0.47420E+00  0.00000E+00 -0.34953E-01  0.46796E+00  0.00000E+00 -0.33751E-01  0.45127E+00  0.00000E+00 -0.37444E-01  0.44092E+00  0.00000E+00 -0.36230E-01  0.42595E+00  0.00000E+00 -0.44149E-01
          0.41262E+00  0.00000E+00 -0.51527E-01  0.38800E+00  0.00000E+00 -0.58770E-01  0.39421E+00  0.00000E+00 -0.83509E-01  0.36433E+00  0.00000E+00 -0.84365E-01  0.41170E+00  0.00000E+00 -0.81822E-01  0.35044E+00  0.00000E+00 -0.88559E-01
          0.33444E+00  0.00000E+00 -0.11790E+00  0.35475E+00  0.00000E+00 -0.95551E-01  0.29599E+00  0.00000E+00 -0.12229E+00  0.34274E+00  0.00000E+00 -0.11911E+00  0.29555E+00  0.00000E+00 -0.13303E+00  0.23562E+00  0.00000E+00 -0.14360E+00
          0.25628E+00  0.00000E+00 -0.14855E+00  0.23029E+00  0.00000E+00 -0.14824E+00  0.20349E+00  0.00000E+00 -0.15508E+00  0.21693E+00  0.00000E+00 -0.16103E+00  0.20522E+00  0.00000E+00 -0.16219E+00  0.20542E+00  0.00000E+00 -0.16459E+00
          0.56227E+00  0.00000E+00 -0.29685E-03  0.57860E+00  0.00000E+00 -0.42060E-02  0.56752E+00  0.00000E+00 -0.63881E-02  0.54021E+00  0.00000E+00 -0.20431E-01  0.53938E+00  0.00000E+00 -0.19233E-01  0.52334E+00  0.00000E+00 -0.19988E-01
          0.51845E+00  0.00000E+00 -0.27942E-01  0.50843E+00  0.00000E+00 -0.36027E-01  0.49810E+00  0.00000E+00 -0.36813E-01  0.48932E+00  0.00000E+00 -0.43458E-01  0.48294E+00  0.00000E+00 -0.44073E-01  0.46626E+00  0.00000E+00 -0.46935E-01
          0.45591E+00  0.00000E+00 -0.49843E-01  0.42429E+00  0.00000E+00 -0.56084E-01  0.41609E+00  0.00000E+00 -0.58125E-01  0.38427E+00  0.00000E+00 -0.75663E-01  0.42755E+00  0.00000E+00 -0.75372E-01  0.37362E+00  0.00000E+00 -0.80986E-01
          0.35077E+00  0.00000E+00 -0.10321E+00  0.37593E+00  0.00000E+00 -0.85796E-01  0.31239E+00  0.00000E+00 -0.11355E+00  0.36225E+00  0.00000E+00 -0.11192E+00  0.31702E+00  0.00000E+00 -0.12412E+00  0.25255E+00  0.00000E+00 -0.13977E+00
          0.27498E+00  0.00000E+00 -0.14312E+00  0.25099E+00  0.00000E+00 -0.14277E+00  0.22101E+00  0.00000E+00 -0.15073E+00  0.23605E+00  0.00000E+00 -0.15728E+00  0.22327E+00  0.00000E+00 -0.15817E+00  0.22365E+00  0.00000E+00 -0.16046E+00
          0.59392E+00  0.00000E+00 -0.20211E-03  0.61117E+00  0.00000E+00 -0.45612E-02  0.60745E+00  0.00000E+00 -0.92908E-02  0.58110E+00  0.00000E+00 -0.18000E-01  0.58256E+00  0.00000E+00 -0.20032E-01  0.56189E+00  0.00000E+00 -0.21354E-01
          0.55755E+00  0.00000E+00 -0.26898E-01  0.54597E+00  0.00000E+00 -0.37183E-01  0.53585E+00  0.00000E+00 -0.37484E-01  0.52223E+00  0.00000E+00 -0.44374E-01  0.51434E+00  0.00000E+00 -0.46294E-01  0.50134E+00  0.00000E+00 -0.50679E-01
          0.49047E+00  0.00000E+00 -0.50172E-01  0.47635E+00  0.00000E+00 -0.65759E-01  0.45368E+00  0.00000E+00 -0.56232E-01  0.44442E+00  0.00000E+00 -0.72305E-01  0.40650E+00  0.00000E+00 -0.80389E-01  0.40428E+00  0.00000E+00 -0.62253E-01
          0.37013E+00  0.00000E+00 -0.89425E-01  0.40170E+00  0.00000E+00 -0.76406E-01  0.33461E+00  0.00000E+00 -0.10214E+00  0.38745E+00  0.00000E+00 -0.10177E+00  0.34382E+00  0.00000E+00 -0.11030E+00  0.27458E+00  0.00000E+00 -0.13562E+00
          0.29862E+00  0.00000E+00 -0.13346E+00  0.27429E+00  0.00000E+00 -0.13492E+00  0.24219E+00  0.00000E+00 -0.14401E+00  0.25794E+00  0.00000E+00 -0.15158E+00  0.24445E+00  0.00000E+00 -0.15265E+00  0.24479E+00  0.00000E+00 -0.15520E+00
          0.62986E+00  0.00000E+00 -0.37065E-03  0.64940E+00  0.00000E+00 -0.57538E-02  0.64759E+00  0.00000E+00 -0.13021E-01  0.62242E+00  0.00000E+00 -0.16008E-01  0.62837E+00  0.00000E+00 -0.22750E-01  0.60340E+00  0.00000E+00 -0.22219E-01
          0.59766E+00  0.00000E+00 -0.26140E-01  0.58613E+00  0.00000E+00 -0.38262E-01  0.57624E+00  0.00000E+00 -0.38588E-01  0.55941E+00  0.00000E+00 -0.45428E-01  0.55111E+00  0.00000E+00 -0.47105E-01  0.53607E+00  0.00000E+00 -0.53425E-01
          0.52426E+00  0.00000E+00 -0.55044E-01  0.50864E+00  0.00000E+00 -0.61973E-01  0.49258E+00  0.00000E+00 -0.64060E-01  0.47386E+00  0.00000E+00 -0.63740E-01  0.44678E+00  0.00000E+00 -0.76754E-01  0.41999E+00  0.00000E+00 -0.73840E-01
          0.39513E+00  0.00000E+00 -0.10151E+00  0.42905E+00  0.00000E+00 -0.87099E-01  0.36972E+00  0.00000E+00 -0.10785E+00  0.42007E+00  0.00000E+00 -0.10636E+00  0.37609E+00  0.00000E+00 -0.11403E+00  0.30935E+00  0.00000E+00 -0.14204E+00
          0.33333E+00  0.00000E+00 -0.13295E+00  0.30744E+00  0.00000E+00 -0.13819E+00  0.27171E+00  0.00000E+00 -0.14832E+00  0.28618E+00  0.00000E+00 -0.15575E+00  0.27108E+00  0.00000E+00 -0.15787E+00  0.27085E+00  0.00000E+00 -0.16078E+00
          0.67785E+00  0.00000E+00  0.16586E-03  0.68173E+00  0.00000E+00 -0.13582E-02  0.70630E+00  0.00000E+00 -0.80755E-02  0.65736E+00  0.00000E+00 -0.10085E-01  0.68411E+00  0.00000E+00 -0.29348E-01  0.64316E+00  0.00000E+00 -0.19565E-01